<?xml version="1.0" encoding="UTF-8"?>

<!-- generated on 2025-12-11 10:54:06 by Eclipse SUMO sumo Version 1.24.0
-->

<sumoConfiguration xmlns:xsi="http://www.w3.org/2001/XMLSchema-instance" xsi:noNamespaceSchemaLocation="http://sumo.dlr.de/xsd/sumoConfiguration.xsd">

    <input>
        <net-file value="ff.net.xml"/>
        <route-files value="ff_heterogeneous.rou.xml"/>
    </input>
    
    <output>
    <!-- Vehicle trip information -->
    <tripinfo-output value="tripinfo.xml"/>
    
    <!-- Queue length at edges -->
    <queue-output value="queue.xml"/>
    
    <!-- Emissions data -->
    <emission-output value="emissions.xml"/>
    
    <!-- Summary statistics -->
    <summary-output value="summary.xml"/>
    </output>

    <time>
        <begin value="0"/>
        <end value="3600"/>
    </time>

</sumoConfiguration>
