<?xml version="1.0" encoding="UTF-8"?>

<!-- generated on 2026-01-30T02:09:08.474545+01:00 by Eclipse SUMO sumo 1.25.0
<sumoConfiguration xmlns:xsi="http://www.w3.org/2001/XMLSchema-instance" xsi:noNamespaceSchemaLocation="http://sumo.dlr.de/xsd/sumoConfiguration.xsd">

    <input>
        <net-file value="ff.net.xml"/>
        <route-files value="ff_heterogeneous.rou.xml"/>
    </input>

    <output>
        <emission-output value="emissions.xml"/>
        <queue-output value="queue.xml"/>
        <summary-output value="summary.xml"/>
        <tripinfo-output value="tripinfo.xml"/>
    </output>

    <time>
        <begin value="0"/>
        <end value="3600"/>
    </time>

    <traci_server>
        <remote-port value="55502"/>
    </traci_server>

</sumoConfiguration>
-->

<queue-export xmlns:xsi="http://www.w3.org/2001/XMLSchema-instance" xsi:noNamespaceSchemaLocation="http://sumo.dlr.de/xsd/queue_file.xsd">
    <data timestep="0.00">
        <lanes/>
    </data>
    <data timestep="1.00">
        <lanes/>
    </data>
    <data timestep="2.00">
        <lanes/>
    </data>
    <data timestep="3.00">
        <lanes/>
    </data>
    <data timestep="4.00">
        <lanes/>
    </data>
    <data timestep="5.00">
        <lanes/>
    </data>
    <data timestep="6.00">
        <lanes/>
    </data>
    <data timestep="7.00">
        <lanes/>
    </data>
    <data timestep="8.00">
        <lanes/>
    </data>
    <data timestep="9.00">
        <lanes/>
    </data>
    <data timestep="10.00">
        <lanes/>
    </data>
    <data timestep="11.00">
        <lanes/>
    </data>
    <data timestep="12.00">
        <lanes/>
    </data>
    <data timestep="13.00">
        <lanes/>
    </data>
    <data timestep="14.00">
        <lanes/>
    </data>
    <data timestep="15.00">
        <lanes/>
    </data>
    <data timestep="16.00">
        <lanes/>
    </data>
    <data timestep="17.00">
        <lanes/>
    </data>
    <data timestep="18.00">
        <lanes/>
    </data>
    <data timestep="19.00">
        <lanes>
            <lane id="D5D4_0" queueing_time="1.00" queueing_length="187.21" queueing_length_experimental="0.00"/>
        </lanes>
    </data>
    <data timestep="20.00">
        <lanes/>
    </data>
    <data timestep="21.00">
        <lanes/>
    </data>
    <data timestep="22.00">
        <lanes/>
    </data>
    <data timestep="23.00">
        <lanes/>
    </data>
    <data timestep="24.00">
        <lanes/>
    </data>
    <data timestep="25.00">
        <lanes/>
    </data>
    <data timestep="26.00">
        <lanes/>
    </data>
    <data timestep="27.00">
        <lanes/>
    </data>
    <data timestep="28.00">
        <lanes/>
    </data>
    <data timestep="29.00">
        <lanes>
            <lane id="D0D1_0" queueing_time="1.00" queueing_length="187.20" queueing_length_experimental="0.00"/>
        </lanes>
    </data>
    <data timestep="30.00">
        <lanes/>
    </data>
    <data timestep="31.00">
        <lanes/>
    </data>
    <data timestep="32.00">
        <lanes/>
    </data>
    <data timestep="33.00">
        <lanes/>
    </data>
    <data timestep="34.00">
        <lanes/>
    </data>
    <data timestep="35.00">
        <lanes/>
    </data>
    <data timestep="36.00">
        <lanes/>
    </data>
    <data timestep="37.00">
        <lanes/>
    </data>
    <data timestep="38.00">
        <lanes/>
    </data>
    <data timestep="39.00">
        <lanes/>
    </data>
    <data timestep="40.00">
        <lanes/>
    </data>
    <data timestep="41.00">
        <lanes/>
    </data>
    <data timestep="42.00">
        <lanes/>
    </data>
    <data timestep="43.00">
        <lanes/>
    </data>
    <data timestep="44.00">
        <lanes/>
    </data>
    <data timestep="45.00">
        <lanes>
            <lane id="B5B4_0" queueing_time="0.00" queueing_length="0.00" queueing_length_experimental="2.63"/>
            <lane id="D5D4_0" queueing_time="0.00" queueing_length="0.00" queueing_length_experimental="2.67"/>
        </lanes>
    </data>
    <data timestep="46.00">
        <lanes>
            <lane id="B5B4_0" queueing_time="1.00" queueing_length="2.61" queueing_length_experimental="2.61"/>
            <lane id="D5D4_0" queueing_time="1.00" queueing_length="2.60" queueing_length_experimental="2.60"/>
        </lanes>
    </data>
    <data timestep="47.00">
        <lanes>
            <lane id="B0B1_0" queueing_time="0.00" queueing_length="0.00" queueing_length_experimental="2.65"/>
            <lane id="B5B4_0" queueing_time="2.00" queueing_length="2.60" queueing_length_experimental="2.60"/>
            <lane id="D5D4_0" queueing_time="2.00" queueing_length="2.60" queueing_length_experimental="2.60"/>
        </lanes>
    </data>
    <data timestep="48.00">
        <lanes>
            <lane id="B0B1_0" queueing_time="1.00" queueing_length="2.62" queueing_length_experimental="2.62"/>
            <lane id="B5B4_0" queueing_time="3.00" queueing_length="2.60" queueing_length_experimental="2.60"/>
            <lane id="D5D4_0" queueing_time="3.00" queueing_length="2.60" queueing_length_experimental="2.60"/>
        </lanes>
    </data>
    <data timestep="49.00">
        <lanes>
            <lane id="B0B1_0" queueing_time="2.00" queueing_length="2.60" queueing_length_experimental="2.60"/>
            <lane id="B5B4_0" queueing_time="4.00" queueing_length="2.60" queueing_length_experimental="2.60"/>
            <lane id="D5D4_0" queueing_time="4.00" queueing_length="2.60" queueing_length_experimental="2.60"/>
        </lanes>
    </data>
    <data timestep="50.00">
        <lanes>
            <lane id="B0B1_0" queueing_time="3.00" queueing_length="187.23" queueing_length_experimental="2.60"/>
            <lane id="B0B1_1" queueing_time="0.00" queueing_length="0.00" queueing_length_experimental="3.00"/>
            <lane id="B5B4_0" queueing_time="5.00" queueing_length="2.60" queueing_length_experimental="2.60"/>
            <lane id="D0D1_0" queueing_time="0.00" queueing_length="0.00" queueing_length_experimental="2.87"/>
            <lane id="D0D1_1" queueing_time="0.00" queueing_length="0.00" queueing_length_experimental="2.64"/>
            <lane id="D5D4_0" queueing_time="5.00" queueing_length="2.60" queueing_length_experimental="2.60"/>
            <lane id="D5D4_1" queueing_time="0.00" queueing_length="0.00" queueing_length_experimental="2.71"/>
        </lanes>
    </data>
    <data timestep="51.00">
        <lanes>
            <lane id="B0B1_0" queueing_time="4.00" queueing_length="2.60" queueing_length_experimental="2.60"/>
            <lane id="B0B1_1" queueing_time="0.00" queueing_length="0.00" queueing_length_experimental="2.75"/>
            <lane id="B5B4_0" queueing_time="6.00" queueing_length="2.60" queueing_length_experimental="2.60"/>
            <lane id="B5B4_1" queueing_time="0.00" queueing_length="0.00" queueing_length_experimental="2.63"/>
            <lane id="C2C3_0" queueing_time="0.00" queueing_length="0.00" queueing_length_experimental="13.11"/>
            <lane id="D0D1_0" queueing_time="0.00" queueing_length="0.00" queueing_length_experimental="2.62"/>
            <lane id="D0D1_1" queueing_time="1.00" queueing_length="2.61" queueing_length_experimental="2.61"/>
            <lane id="D5D4_0" queueing_time="6.00" queueing_length="2.60" queueing_length_experimental="2.60"/>
            <lane id="D5D4_1" queueing_time="0.00" queueing_length="0.00" queueing_length_experimental="2.61"/>
        </lanes>
    </data>
    <data timestep="52.00">
        <lanes>
            <lane id="B0B1_0" queueing_time="5.00" queueing_length="2.60" queueing_length_experimental="2.60"/>
            <lane id="B0B1_1" queueing_time="0.00" queueing_length="0.00" queueing_length_experimental="2.61"/>
            <lane id="B5B4_0" queueing_time="7.00" queueing_length="2.60" queueing_length_experimental="2.60"/>
            <lane id="B5B4_1" queueing_time="1.00" queueing_length="2.61" queueing_length_experimental="2.61"/>
            <lane id="C2C3_0" queueing_time="1.00" queueing_length="13.04" queueing_length_experimental="13.04"/>
            <lane id="C3C2_0" queueing_time="0.00" queueing_length="0.00" queueing_length_experimental="13.02"/>
            <lane id="D0D1_0" queueing_time="1.00" queueing_length="2.60" queueing_length_experimental="4.91"/>
            <lane id="D0D1_1" queueing_time="2.00" queueing_length="2.60" queueing_length_experimental="2.60"/>
            <lane id="D5D4_0" queueing_time="7.00" queueing_length="2.60" queueing_length_experimental="2.60"/>
            <lane id="D5D4_1" queueing_time="1.00" queueing_length="2.60" queueing_length_experimental="2.60"/>
        </lanes>
    </data>
    <data timestep="53.00">
        <lanes>
            <lane id="B0B1_0" queueing_time="6.00" queueing_length="2.60" queueing_length_experimental="2.60"/>
            <lane id="B0B1_1" queueing_time="1.00" queueing_length="2.60" queueing_length_experimental="2.60"/>
            <lane id="B5B4_0" queueing_time="8.00" queueing_length="2.60" queueing_length_experimental="2.60"/>
            <lane id="B5B4_1" queueing_time="2.00" queueing_length="2.60" queueing_length_experimental="2.60"/>
            <lane id="C2C3_0" queueing_time="2.00" queueing_length="13.01" queueing_length_experimental="13.01"/>
            <lane id="C3C2_0" queueing_time="1.00" queueing_length="13.01" queueing_length_experimental="13.01"/>
            <lane id="D0D1_0" queueing_time="2.00" queueing_length="2.60" queueing_length_experimental="4.72"/>
            <lane id="D0D1_1" queueing_time="3.00" queueing_length="2.60" queueing_length_experimental="2.60"/>
            <lane id="D5D4_0" queueing_time="8.00" queueing_length="2.60" queueing_length_experimental="2.60"/>
            <lane id="D5D4_1" queueing_time="2.00" queueing_length="2.60" queueing_length_experimental="2.60"/>
        </lanes>
    </data>
    <data timestep="54.00">
        <lanes>
            <lane id="B0B1_0" queueing_time="7.00" queueing_length="2.60" queueing_length_experimental="4.92"/>
            <lane id="B0B1_1" queueing_time="2.00" queueing_length="2.60" queueing_length_experimental="2.60"/>
            <lane id="B5B4_0" queueing_time="9.00" queueing_length="2.60" queueing_length_experimental="2.60"/>
            <lane id="B5B4_1" queueing_time="3.00" queueing_length="2.60" queueing_length_experimental="2.60"/>
            <lane id="C2C3_0" queueing_time="3.00" queueing_length="13.00" queueing_length_experimental="13.00"/>
            <lane id="C3C2_0" queueing_time="2.00" queueing_length="13.00" queueing_length_experimental="13.00"/>
            <lane id="D0D1_0" queueing_time="3.00" queueing_length="4.71" queueing_length_experimental="4.71"/>
            <lane id="D0D1_1" queueing_time="4.00" queueing_length="2.60" queueing_length_experimental="2.60"/>
            <lane id="D5D4_0" queueing_time="9.00" queueing_length="2.60" queueing_length_experimental="2.60"/>
            <lane id="D5D4_1" queueing_time="3.00" queueing_length="2.60" queueing_length_experimental="2.60"/>
        </lanes>
    </data>
    <data timestep="55.00">
        <lanes>
            <lane id="B0B1_0" queueing_time="8.00" queueing_length="2.60" queueing_length_experimental="4.79"/>
            <lane id="B0B1_1" queueing_time="3.00" queueing_length="2.60" queueing_length_experimental="2.60"/>
            <lane id="B5B4_0" queueing_time="10.00" queueing_length="2.60" queueing_length_experimental="2.60"/>
            <lane id="B5B4_1" queueing_time="4.00" queueing_length="2.60" queueing_length_experimental="2.60"/>
            <lane id="C2C3_0" queueing_time="4.00" queueing_length="13.00" queueing_length_experimental="13.00"/>
            <lane id="C3C2_0" queueing_time="3.00" queueing_length="13.00" queueing_length_experimental="13.00"/>
            <lane id="D0D1_0" queueing_time="4.00" queueing_length="4.70" queueing_length_experimental="4.70"/>
            <lane id="D0D1_1" queueing_time="5.00" queueing_length="2.60" queueing_length_experimental="2.60"/>
            <lane id="D5D4_0" queueing_time="10.00" queueing_length="2.60" queueing_length_experimental="2.60"/>
            <lane id="D5D4_1" queueing_time="4.00" queueing_length="2.60" queueing_length_experimental="2.60"/>
        </lanes>
    </data>
    <data timestep="56.00">
        <lanes>
            <lane id="B0B1_0" queueing_time="9.00" queueing_length="4.73" queueing_length_experimental="4.73"/>
            <lane id="B0B1_1" queueing_time="4.00" queueing_length="2.60" queueing_length_experimental="2.60"/>
            <lane id="B5B4_0" queueing_time="11.00" queueing_length="2.60" queueing_length_experimental="2.60"/>
            <lane id="B5B4_1" queueing_time="5.00" queueing_length="2.60" queueing_length_experimental="2.60"/>
            <lane id="C2C3_0" queueing_time="5.00" queueing_length="13.00" queueing_length_experimental="13.00"/>
            <lane id="C3C2_0" queueing_time="4.00" queueing_length="13.00" queueing_length_experimental="13.00"/>
            <lane id="D0D1_0" queueing_time="5.00" queueing_length="4.70" queueing_length_experimental="4.70"/>
            <lane id="D0D1_1" queueing_time="6.00" queueing_length="2.60" queueing_length_experimental="2.60"/>
            <lane id="D0D1_2" queueing_time="0.00" queueing_length="0.00" queueing_length_experimental="2.62"/>
            <lane id="D5D4_0" queueing_time="11.00" queueing_length="2.60" queueing_length_experimental="2.60"/>
            <lane id="D5D4_1" queueing_time="5.00" queueing_length="2.60" queueing_length_experimental="2.60"/>
        </lanes>
    </data>
    <data timestep="57.00">
        <lanes>
            <lane id="B0B1_0" queueing_time="10.00" queueing_length="4.71" queueing_length_experimental="4.71"/>
            <lane id="B0B1_1" queueing_time="5.00" queueing_length="2.60" queueing_length_experimental="2.60"/>
            <lane id="B5B4_0" queueing_time="12.00" queueing_length="2.60" queueing_length_experimental="2.60"/>
            <lane id="B5B4_1" queueing_time="6.00" queueing_length="2.60" queueing_length_experimental="2.60"/>
            <lane id="C2C3_0" queueing_time="6.00" queueing_length="13.00" queueing_length_experimental="13.00"/>
            <lane id="C3C2_0" queueing_time="5.00" queueing_length="13.00" queueing_length_experimental="13.00"/>
            <lane id="D0D1_0" queueing_time="6.00" queueing_length="4.70" queueing_length_experimental="4.70"/>
            <lane id="D0D1_1" queueing_time="7.00" queueing_length="2.60" queueing_length_experimental="4.75"/>
            <lane id="D0D1_2" queueing_time="1.00" queueing_length="2.60" queueing_length_experimental="2.60"/>
            <lane id="D5D4_0" queueing_time="12.00" queueing_length="2.60" queueing_length_experimental="5.14"/>
            <lane id="D5D4_1" queueing_time="6.00" queueing_length="2.60" queueing_length_experimental="2.60"/>
        </lanes>
    </data>
    <data timestep="58.00">
        <lanes>
            <lane id="B0B1_0" queueing_time="11.00" queueing_length="4.70" queueing_length_experimental="4.70"/>
            <lane id="B0B1_1" queueing_time="6.00" queueing_length="2.60" queueing_length_experimental="2.60"/>
            <lane id="B5B4_0" queueing_time="13.00" queueing_length="2.60" queueing_length_experimental="2.60"/>
            <lane id="B5B4_1" queueing_time="7.00" queueing_length="2.60" queueing_length_experimental="2.60"/>
            <lane id="C2C3_0" queueing_time="7.00" queueing_length="13.00" queueing_length_experimental="13.00"/>
            <lane id="C3C2_0" queueing_time="6.00" queueing_length="13.00" queueing_length_experimental="13.00"/>
            <lane id="D0D1_0" queueing_time="7.00" queueing_length="4.70" queueing_length_experimental="4.70"/>
            <lane id="D0D1_1" queueing_time="8.00" queueing_length="4.71" queueing_length_experimental="4.71"/>
            <lane id="D0D1_2" queueing_time="2.00" queueing_length="2.60" queueing_length_experimental="2.60"/>
            <lane id="D5D4_0" queueing_time="13.00" queueing_length="2.60" queueing_length_experimental="4.91"/>
            <lane id="D5D4_1" queueing_time="7.00" queueing_length="2.60" queueing_length_experimental="2.60"/>
        </lanes>
    </data>
    <data timestep="59.00">
        <lanes>
            <lane id="B0B1_0" queueing_time="12.00" queueing_length="4.70" queueing_length_experimental="4.70"/>
            <lane id="B0B1_1" queueing_time="7.00" queueing_length="2.60" queueing_length_experimental="2.60"/>
            <lane id="B5B4_0" queueing_time="14.00" queueing_length="2.60" queueing_length_experimental="4.87"/>
            <lane id="B5B4_1" queueing_time="8.00" queueing_length="2.60" queueing_length_experimental="2.60"/>
            <lane id="C2C3_0" queueing_time="8.00" queueing_length="13.00" queueing_length_experimental="13.00"/>
            <lane id="C3C2_0" queueing_time="7.00" queueing_length="13.00" queueing_length_experimental="13.00"/>
            <lane id="D0D1_0" queueing_time="8.00" queueing_length="4.70" queueing_length_experimental="4.70"/>
            <lane id="D0D1_1" queueing_time="9.00" queueing_length="4.71" queueing_length_experimental="4.71"/>
            <lane id="D0D1_2" queueing_time="3.00" queueing_length="2.60" queueing_length_experimental="2.60"/>
            <lane id="D5D4_0" queueing_time="14.00" queueing_length="2.60" queueing_length_experimental="4.80"/>
            <lane id="D5D4_1" queueing_time="8.00" queueing_length="2.60" queueing_length_experimental="2.60"/>
        </lanes>
    </data>
    <data timestep="60.00">
        <lanes>
            <lane id="B0B1_0" queueing_time="13.00" queueing_length="4.70" queueing_length_experimental="4.70"/>
            <lane id="B0B1_1" queueing_time="8.00" queueing_length="2.60" queueing_length_experimental="2.60"/>
            <lane id="B5B4_0" queueing_time="15.00" queueing_length="2.60" queueing_length_experimental="4.73"/>
            <lane id="B5B4_1" queueing_time="9.00" queueing_length="2.60" queueing_length_experimental="2.60"/>
            <lane id="C2C3_0" queueing_time="9.00" queueing_length="13.00" queueing_length_experimental="13.00"/>
            <lane id="C3C2_0" queueing_time="8.00" queueing_length="13.00" queueing_length_experimental="13.00"/>
            <lane id="D0D1_0" queueing_time="9.00" queueing_length="4.70" queueing_length_experimental="4.70"/>
            <lane id="D0D1_1" queueing_time="10.00" queueing_length="4.70" queueing_length_experimental="4.70"/>
            <lane id="D0D1_2" queueing_time="4.00" queueing_length="2.60" queueing_length_experimental="2.60"/>
            <lane id="D5D4_0" queueing_time="15.00" queueing_length="4.73" queueing_length_experimental="4.73"/>
            <lane id="D5D4_1" queueing_time="9.00" queueing_length="2.60" queueing_length_experimental="2.60"/>
        </lanes>
    </data>
    <data timestep="61.00">
        <lanes>
            <lane id="B0B1_0" queueing_time="14.00" queueing_length="4.70" queueing_length_experimental="4.70"/>
            <lane id="B0B1_1" queueing_time="9.00" queueing_length="2.60" queueing_length_experimental="2.60"/>
            <lane id="B5B4_0" queueing_time="16.00" queueing_length="4.71" queueing_length_experimental="4.71"/>
            <lane id="B5B4_1" queueing_time="10.00" queueing_length="2.60" queueing_length_experimental="2.60"/>
            <lane id="C2C3_0" queueing_time="10.00" queueing_length="13.00" queueing_length_experimental="13.00"/>
            <lane id="C3C2_0" queueing_time="9.00" queueing_length="13.00" queueing_length_experimental="13.00"/>
            <lane id="D0D1_0" queueing_time="10.00" queueing_length="4.70" queueing_length_experimental="4.70"/>
            <lane id="D0D1_1" queueing_time="11.00" queueing_length="4.70" queueing_length_experimental="4.70"/>
            <lane id="D0D1_2" queueing_time="5.00" queueing_length="2.60" queueing_length_experimental="2.60"/>
            <lane id="D5D4_0" queueing_time="16.00" queueing_length="4.71" queueing_length_experimental="4.71"/>
            <lane id="D5D4_1" queueing_time="10.00" queueing_length="2.60" queueing_length_experimental="2.60"/>
        </lanes>
    </data>
    <data timestep="62.00">
        <lanes>
            <lane id="B0B1_0" queueing_time="15.00" queueing_length="4.70" queueing_length_experimental="4.70"/>
            <lane id="B0B1_1" queueing_time="10.00" queueing_length="2.60" queueing_length_experimental="2.60"/>
            <lane id="B0B1_2" queueing_time="0.00" queueing_length="0.00" queueing_length_experimental="2.75"/>
            <lane id="B5B4_0" queueing_time="17.00" queueing_length="4.71" queueing_length_experimental="4.71"/>
            <lane id="B5B4_1" queueing_time="11.00" queueing_length="2.60" queueing_length_experimental="2.60"/>
            <lane id="C2C3_0" queueing_time="11.00" queueing_length="13.00" queueing_length_experimental="13.00"/>
            <lane id="C3C2_0" queueing_time="10.00" queueing_length="13.00" queueing_length_experimental="13.00"/>
            <lane id="D0D1_0" queueing_time="11.00" queueing_length="4.70" queueing_length_experimental="6.82"/>
            <lane id="D0D1_1" queueing_time="12.00" queueing_length="4.70" queueing_length_experimental="4.70"/>
            <lane id="D0D1_2" queueing_time="6.00" queueing_length="2.60" queueing_length_experimental="2.60"/>
            <lane id="D5D4_0" queueing_time="17.00" queueing_length="4.70" queueing_length_experimental="4.70"/>
            <lane id="D5D4_1" queueing_time="11.00" queueing_length="2.60" queueing_length_experimental="2.60"/>
            <lane id="D5D4_2" queueing_time="1.00" queueing_length="2.60" queueing_length_experimental="2.60"/>
        </lanes>
    </data>
    <data timestep="63.00">
        <lanes>
            <lane id="B0B1_0" queueing_time="16.00" queueing_length="4.70" queueing_length_experimental="4.70"/>
            <lane id="B0B1_1" queueing_time="11.00" queueing_length="2.60" queueing_length_experimental="2.60"/>
            <lane id="B0B1_2" queueing_time="1.00" queueing_length="2.66" queueing_length_experimental="2.66"/>
            <lane id="B5B4_0" queueing_time="18.00" queueing_length="4.70" queueing_length_experimental="4.70"/>
            <lane id="B5B4_1" queueing_time="12.00" queueing_length="2.60" queueing_length_experimental="2.60"/>
            <lane id="C2C3_0" queueing_time="12.00" queueing_length="13.00" queueing_length_experimental="13.00"/>
            <lane id="C3C2_0" queueing_time="11.00" queueing_length="13.00" queueing_length_experimental="13.00"/>
            <lane id="D0D1_0" queueing_time="12.00" queueing_length="6.81" queueing_length_experimental="6.81"/>
            <lane id="D0D1_1" queueing_time="13.00" queueing_length="4.70" queueing_length_experimental="4.70"/>
            <lane id="D0D1_2" queueing_time="7.00" queueing_length="2.60" queueing_length_experimental="2.60"/>
            <lane id="D0D1_3" queueing_time="1.00" queueing_length="2.61" queueing_length_experimental="2.61"/>
            <lane id="D5D4_0" queueing_time="18.00" queueing_length="4.70" queueing_length_experimental="4.70"/>
            <lane id="D5D4_1" queueing_time="12.00" queueing_length="2.60" queueing_length_experimental="4.73"/>
            <lane id="D5D4_2" queueing_time="2.00" queueing_length="2.60" queueing_length_experimental="2.60"/>
        </lanes>
    </data>
    <data timestep="64.00">
        <lanes>
            <lane id="B0B1_0" queueing_time="17.00" queueing_length="4.70" queueing_length_experimental="4.70"/>
            <lane id="B0B1_1" queueing_time="12.00" queueing_length="2.60" queueing_length_experimental="2.60"/>
            <lane id="B0B1_2" queueing_time="2.00" queueing_length="2.62" queueing_length_experimental="2.62"/>
            <lane id="B5B4_0" queueing_time="19.00" queueing_length="4.70" queueing_length_experimental="4.70"/>
            <lane id="B5B4_1" queueing_time="13.00" queueing_length="2.60" queueing_length_experimental="2.60"/>
            <lane id="B5B4_2" queueing_time="1.00" queueing_length="2.60" queueing_length_experimental="2.60"/>
            <lane id="C2C3_0" queueing_time="13.00" queueing_length="13.00" queueing_length_experimental="13.00"/>
            <lane id="C3C2_0" queueing_time="12.00" queueing_length="13.00" queueing_length_experimental="13.00"/>
            <lane id="D0D1_0" queueing_time="13.00" queueing_length="6.80" queueing_length_experimental="6.80"/>
            <lane id="D0D1_1" queueing_time="14.00" queueing_length="4.70" queueing_length_experimental="4.70"/>
            <lane id="D0D1_2" queueing_time="8.00" queueing_length="2.60" queueing_length_experimental="4.76"/>
            <lane id="D0D1_3" queueing_time="2.00" queueing_length="2.60" queueing_length_experimental="2.60"/>
            <lane id="D5D4_0" queueing_time="19.00" queueing_length="4.70" queueing_length_experimental="4.70"/>
            <lane id="D5D4_1" queueing_time="13.00" queueing_length="4.70" queueing_length_experimental="4.70"/>
            <lane id="D5D4_2" queueing_time="3.00" queueing_length="2.60" queueing_length_experimental="2.60"/>
        </lanes>
    </data>
    <data timestep="65.00">
        <lanes>
            <lane id="B0B1_0" queueing_time="18.00" queueing_length="4.70" queueing_length_experimental="4.70"/>
            <lane id="B0B1_1" queueing_time="13.00" queueing_length="2.60" queueing_length_experimental="2.60"/>
            <lane id="B0B1_2" queueing_time="3.00" queueing_length="2.61" queueing_length_experimental="2.61"/>
            <lane id="B5B4_0" queueing_time="20.00" queueing_length="4.70" queueing_length_experimental="4.70"/>
            <lane id="B5B4_1" queueing_time="14.00" queueing_length="2.60" queueing_length_experimental="2.60"/>
            <lane id="B5B4_2" queueing_time="2.00" queueing_length="2.60" queueing_length_experimental="2.60"/>
            <lane id="C2C3_0" queueing_time="14.00" queueing_length="13.00" queueing_length_experimental="13.00"/>
            <lane id="C3C2_0" queueing_time="13.00" queueing_length="13.00" queueing_length_experimental="13.00"/>
            <lane id="D0D1_0" queueing_time="14.00" queueing_length="6.80" queueing_length_experimental="6.80"/>
            <lane id="D0D1_1" queueing_time="15.00" queueing_length="4.70" queueing_length_experimental="4.70"/>
            <lane id="D0D1_2" queueing_time="9.00" queueing_length="4.72" queueing_length_experimental="4.72"/>
            <lane id="D0D1_3" queueing_time="3.00" queueing_length="2.60" queueing_length_experimental="2.60"/>
            <lane id="D5D4_0" queueing_time="20.00" queueing_length="4.70" queueing_length_experimental="4.70"/>
            <lane id="D5D4_1" queueing_time="14.00" queueing_length="4.70" queueing_length_experimental="4.70"/>
            <lane id="D5D4_2" queueing_time="4.00" queueing_length="2.60" queueing_length_experimental="2.60"/>
        </lanes>
    </data>
    <data timestep="66.00">
        <lanes>
            <lane id="B0B1_0" queueing_time="19.00" queueing_length="4.70" queueing_length_experimental="4.70"/>
            <lane id="B0B1_1" queueing_time="14.00" queueing_length="2.60" queueing_length_experimental="2.60"/>
            <lane id="B0B1_2" queueing_time="4.00" queueing_length="2.61" queueing_length_experimental="2.61"/>
            <lane id="B5B4_0" queueing_time="21.00" queueing_length="4.70" queueing_length_experimental="4.70"/>
            <lane id="B5B4_1" queueing_time="15.00" queueing_length="2.60" queueing_length_experimental="2.60"/>
            <lane id="B5B4_2" queueing_time="3.00" queueing_length="2.60" queueing_length_experimental="2.60"/>
            <lane id="C2C3_0" queueing_time="15.00" queueing_length="13.00" queueing_length_experimental="13.00"/>
            <lane id="C3C2_0" queueing_time="14.00" queueing_length="13.00" queueing_length_experimental="13.00"/>
            <lane id="D0D1_0" queueing_time="15.00" queueing_length="6.80" queueing_length_experimental="6.80"/>
            <lane id="D0D1_1" queueing_time="16.00" queueing_length="4.70" queueing_length_experimental="6.86"/>
            <lane id="D0D1_2" queueing_time="10.00" queueing_length="4.70" queueing_length_experimental="4.70"/>
            <lane id="D0D1_3" queueing_time="4.00" queueing_length="2.60" queueing_length_experimental="2.60"/>
            <lane id="D5D4_0" queueing_time="21.00" queueing_length="4.70" queueing_length_experimental="4.70"/>
            <lane id="D5D4_1" queueing_time="15.00" queueing_length="4.70" queueing_length_experimental="4.70"/>
            <lane id="D5D4_2" queueing_time="5.00" queueing_length="2.60" queueing_length_experimental="2.60"/>
        </lanes>
    </data>
    <data timestep="67.00">
        <lanes>
            <lane id="B0B1_0" queueing_time="20.00" queueing_length="4.70" queueing_length_experimental="4.70"/>
            <lane id="B0B1_1" queueing_time="15.00" queueing_length="2.60" queueing_length_experimental="7.34"/>
            <lane id="B0B1_2" queueing_time="5.00" queueing_length="2.60" queueing_length_experimental="2.60"/>
            <lane id="B5B4_0" queueing_time="22.00" queueing_length="4.70" queueing_length_experimental="4.70"/>
            <lane id="B5B4_1" queueing_time="16.00" queueing_length="2.60" queueing_length_experimental="2.60"/>
            <lane id="B5B4_2" queueing_time="4.00" queueing_length="2.60" queueing_length_experimental="2.60"/>
            <lane id="C2C3_0" queueing_time="16.00" queueing_length="13.00" queueing_length_experimental="13.00"/>