<?xml version="1.0" encoding="UTF-8"?>

<!-- generated on 2026-01-30T11:48:04.424665+01:00 by Eclipse SUMO GUI 1.25.0
<sumoConfiguration xmlns:xsi="http://www.w3.org/2001/XMLSchema-instance" xsi:noNamespaceSchemaLocation="http://sumo.dlr.de/xsd/sumoConfiguration.xsd">

    <input>
        <net-file value="ff.net.xml"/>
        <route-files value="ff_heterogeneous.rou.xml"/>
    </input>

    <output>
        <emission-output value="emissions.xml"/>
        <queue-output value="queue_ai.xml"/>
        <summary-output value="summary.xml"/>
        <tripinfo-output value="tripinfo_ai.xml"/>
    </output>

    <time>
        <begin value="0"/>
        <end value="3600"/>
    </time>

    <traci_server>
        <remote-port value="59030"/>
    </traci_server>

</sumoConfiguration>
-->

<tripinfos xmlns:xsi="http://www.w3.org/2001/XMLSchema-instance" xsi:noNamespaceSchemaLocation="http://sumo.dlr.de/xsd/tripinfo_file.xsd">
    <tripinfo id="f_4.0" depart="0.00" departLane="C5C4_0" departPos="12.10" departSpeed="0.00" departDelay="0.00" arrival="127.00" arrivalLane="C1C0_0" arrivalPos="186.40" arrivalSpeed="13.83" duration="127.00" routeLength="987.90" waitingTime="37.00" waitingCount="1" stopTime="0.00" timeLoss="55.67" rerouteNo="0" devices="tripinfo_f_4.0 emissions_f_4.0" vType="t_0" speedFactor="1.00" vaporized="">
        <emissions CO_abs="313.36" CO2_abs="1340142.12" HC_abs="26.20" PMx_abs="197.49" NOx_abs="624.75" fuel_abs="430676.51" electricity_abs="0.00"/>
    </tripinfo>
    <tripinfo id="f_5.0" depart="0.00" departLane="C0C1_0" departPos="12.10" departSpeed="0.00" departDelay="0.00" arrival="127.00" arrivalLane="C4C5_0" arrivalPos="186.40" arrivalSpeed="13.59" duration="127.00" routeLength="987.90" waitingTime="38.00" waitingCount="1" stopTime="0.00" timeLoss="55.25" rerouteNo="0" devices="tripinfo_f_5.0 emissions_f_5.0" vType="t_0" speedFactor="1.00" vaporized="">
        <emissions CO_abs="311.43" CO2_abs="1325870.63" HC_abs="25.99" PMx_abs="196.05" NOx_abs="619.77" fuel_abs="426089.98" electricity_abs="0.00"/>
    </tripinfo>
    <tripinfo id="f_4.1" depart="60.00" departLane="C5C4_0" departPos="12.10" departSpeed="0.00" departDelay="0.00" arrival="140.00" arrivalLane="C1C0_0" arrivalPos="186.40" arrivalSpeed="13.56" duration="80.00" routeLength="987.90" waitingTime="0.00" waitingCount="0" stopTime="0.00" timeLoss="8.55" rerouteNo="0" devices="tripinfo_f_4.1 emissions_f_4.1" vType="t_0" speedFactor="1.00" vaporized="">
        <emissions CO_abs="191.65" CO2_abs="1019394.34" HC_abs="18.43" PMx_abs="125.52" NOx_abs="407.44" fuel_abs="327596.67" electricity_abs="0.00"/>
    </tripinfo>
    <tripinfo id="f_5.1" depart="60.00" departLane="C0C1_0" departPos="12.10" departSpeed="0.00" departDelay="0.00" arrival="163.00" arrivalLane="C4C5_0" arrivalPos="186.40" arrivalSpeed="13.38" duration="103.00" routeLength="987.90" waitingTime="8.00" waitingCount="1" stopTime="0.00" timeLoss="30.99" rerouteNo="0" devices="tripinfo_f_5.1 emissions_f_5.1" vType="t_0" speedFactor="1.00" vaporized="">
        <emissions CO_abs="277.00" CO2_abs="1429744.24" HC_abs="24.02" PMx_abs="155.31" NOx_abs="510.07" fuel_abs="459474.22" electricity_abs="0.00"/>
    </tripinfo>
    <tripinfo id="f_1.1" depart="4.00" departLane="D0D1_0" departPos="1.70" departSpeed="0.00" departDelay="2.07" arrival="200.00" arrivalLane="D4D5_0" arrivalPos="187.40" arrivalSpeed="5.99" duration="196.00" routeLength="998.30" waitingTime="13.00" waitingCount="1" stopTime="0.00" timeLoss="29.24" rerouteNo="0" devices="tripinfo_f_1.1 emissions_f_1.1" vType="DEFAULT_BIKETYPE" speedFactor="1.08" vaporized="">
        <emissions CO_abs="0.00" CO2_abs="0.00" HC_abs="0.00" PMx_abs="0.00" NOx_abs="0.00" fuel_abs="0.00" electricity_abs="0.00"/>
    </tripinfo>
    <tripinfo id="f_1.0" depart="2.00" departLane="D0D1_0" departPos="1.70" departSpeed="0.00" departDelay="0.97" arrival="208.00" arrivalLane="D4D5_0" arrivalPos="187.40" arrivalSpeed="5.05" duration="206.00" routeLength="998.30" waitingTime="11.00" waitingCount="1" stopTime="0.00" timeLoss="27.64" rerouteNo="0" devices="tripinfo_f_1.0 emissions_f_1.0" vType="DEFAULT_BIKETYPE" speedFactor="1.01" vaporized="">
        <emissions CO_abs="0.00" CO2_abs="0.00" HC_abs="0.00" PMx_abs="0.00" NOx_abs="0.00" fuel_abs="0.00" electricity_abs="0.00"/>
    </tripinfo>
    <tripinfo id="f_0.0" depart="1.00" departLane="D5D4_0" departPos="1.70" departSpeed="0.00" departDelay="0.65" arrival="221.00" arrivalLane="D1D0_0" arrivalPos="187.40" arrivalSpeed="5.34" duration="220.00" routeLength="998.30" waitingTime="28.00" waitingCount="2" stopTime="0.00" timeLoss="49.59" rerouteNo="0" devices="tripinfo_f_0.0 emissions_f_0.0" vType="DEFAULT_BIKETYPE" speedFactor="1.06" vaporized="">
        <emissions CO_abs="0.00" CO2_abs="0.00" HC_abs="0.00" PMx_abs="0.00" NOx_abs="0.00" fuel_abs="0.00" electricity_abs="0.00"/>
    </tripinfo>
    <tripinfo id="f_3.0" depart="3.00" departLane="B5B4_0" departPos="1.70" departSpeed="0.00" departDelay="0.85" arrival="221.00" arrivalLane="B1B0_0" arrivalPos="187.40" arrivalSpeed="5.47" duration="218.00" routeLength="998.30" waitingTime="23.00" waitingCount="2" stopTime="0.00" timeLoss="43.57" rerouteNo="0" devices="tripinfo_f_3.0 emissions_f_3.0" vType="DEFAULT_BIKETYPE" speedFactor="1.03" vaporized="">
        <emissions CO_abs="0.00" CO2_abs="0.00" HC_abs="0.00" PMx_abs="0.00" NOx_abs="0.00" fuel_abs="0.00" electricity_abs="0.00"/>
    </tripinfo>
    <tripinfo id="f_3.2" depart="7.00" departLane="B5B4_0" departPos="1.70" departSpeed="0.00" departDelay="2.12" arrival="221.00" arrivalLane="B1B0_1" arrivalPos="187.40" arrivalSpeed="5.58" duration="214.00" routeLength="998.30" waitingTime="17.00" waitingCount="3" stopTime="0.00" timeLoss="41.88" rerouteNo="0" devices="tripinfo_f_3.2 emissions_f_3.2" vType="DEFAULT_BIKETYPE" speedFactor="1.05" vaporized="">
        <emissions CO_abs="0.00" CO2_abs="0.00" HC_abs="0.00" PMx_abs="0.00" NOx_abs="0.00" fuel_abs="0.00" electricity_abs="0.00"/>
    </tripinfo>
    <tripinfo id="f_0.2" depart="12.00" departLane="D5D4_0" departPos="1.70" departSpeed="0.00" departDelay="0.56" arrival="221.00" arrivalLane="D1D0_1" arrivalPos="187.40" arrivalSpeed="5.27" duration="209.00" routeLength="998.30" waitingTime="11.00" waitingCount="2" stopTime="0.00" timeLoss="33.86" rerouteNo="0" devices="tripinfo_f_0.2 emissions_f_0.2" vType="DEFAULT_BIKETYPE" speedFactor="1.03" vaporized="">
        <emissions CO_abs="0.00" CO2_abs="0.00" HC_abs="0.00" PMx_abs="0.00" NOx_abs="0.00" fuel_abs="0.00" electricity_abs="0.00"/>
    </tripinfo>
    <tripinfo id="f_4.2" depart="120.00" departLane="C5C4_0" departPos="12.10" departSpeed="0.00" departDelay="0.00" arrival="232.00" arrivalLane="C1C0_0" arrivalPos="186.40" arrivalSpeed="13.67" duration="112.00" routeLength="987.90" waitingTime="17.00" waitingCount="1" stopTime="0.00" timeLoss="40.35" rerouteNo="0" devices="tripinfo_f_4.2 emissions_f_4.2" vType="t_0" speedFactor="1.00" vaporized="">
        <emissions CO_abs="297.65" CO2_abs="1456710.80" HC_abs="25.24" PMx_abs="170.20" NOx_abs="553.15" fuel_abs="468140.33" electricity_abs="0.00"/>
    </tripinfo>
    <tripinfo id="f7091.0" depart="191.00" departLane="D2C2_0" departPos="40.90" departSpeed="13.72" departDelay="0.00" arrival="244.00" arrivalLane="C2B2_0" arrivalPos="172.80" arrivalSpeed="12.83" duration="53.00" routeLength="331.90" waitingTime="21.00" waitingCount="1" stopTime="0.00" timeLoss="28.19" rerouteNo="0" devices="tripinfo_f7091.0 routing_f7091.0 emissions_f7091.0" vType="car" speedFactor="0.99" vaporized="">
        <emissions CO_abs="342.23" CO2_abs="104650.22" HC_abs="2.29" PMx_abs="7.13" NOx_abs="37.69" fuel_abs="33926.40" electricity_abs="0.00"/>
    </tripinfo>
    <tripinfo id="f_5.2" depart="120.00" departLane="C0C1_0" departPos="12.10" departSpeed="0.00" departDelay="0.00" arrival="246.00" arrivalLane="C4C5_0" arrivalPos="186.40" arrivalSpeed="13.82" duration="126.00" routeLength="987.90" waitingTime="37.00" waitingCount="1" stopTime="0.00" timeLoss="54.56" rerouteNo="0" devices="tripinfo_f_5.2 emissions_f_5.2" vType="t_0" speedFactor="1.00" vaporized="">
        <emissions CO_abs="314.78" CO2_abs="1344819.25" HC_abs="26.35" PMx_abs="199.62" NOx_abs="630.61" fuel_abs="432179.16" electricity_abs="0.00"/>
    </tripinfo>
    <tripinfo id="f5254.0" depart="214.00" departLane="C2B2_2" departPos="101.80" departSpeed="12.04" departDelay="0.00" arrival="248.00" arrivalLane="B2A2_0" arrivalPos="186.40" arrivalSpeed="12.01" duration="34.00" routeLength="284.60" waitingTime="0.00" waitingCount="0" stopTime="0.00" timeLoss="9.77" rerouteNo="0" devices="tripinfo_f5254.0 routing_f5254.0 emissions_f5254.0" vType="car" speedFactor="0.87" vaporized="">
        <emissions CO_abs="243.23" CO2_abs="70317.24" HC_abs="1.63" PMx_abs="6.35" NOx_abs="23.07" fuel_abs="22795.87" electricity_abs="0.00"/>
    </tripinfo>
    <tripinfo id="f_1.9" depart="28.00" departLane="D0D1_0" departPos="1.70" departSpeed="0.00" departDelay="1.96" arrival="249.00" arrivalLane="D4D5_0" arrivalPos="187.40" arrivalSpeed="5.97" duration="221.00" routeLength="998.30" waitingTime="45.00" waitingCount="3" stopTime="0.00" timeLoss="67.78" rerouteNo="0" devices="tripinfo_f_1.9 emissions_f_1.9" vType="DEFAULT_BIKETYPE" speedFactor="1.18" vaporized="">
        <emissions CO_abs="0.00" CO2_abs="0.00" HC_abs="0.00" PMx_abs="0.00" NOx_abs="0.00" fuel_abs="0.00" electricity_abs="0.00"/>
    </tripinfo>
    <tripinfo id="f_3.8" depart="33.00" departLane="B5B4_0" departPos="1.70" departSpeed="0.00" departDelay="5.07" arrival="249.00" arrivalLane="B1B0_0" arrivalPos="187.40" arrivalSpeed="5.91" duration="216.00" routeLength="998.30" waitingTime="45.00" waitingCount="1" stopTime="0.00" timeLoss="61.94" rerouteNo="0" devices="tripinfo_f_3.8 emissions_f_3.8" vType="DEFAULT_BIKETYPE" speedFactor="1.17" vaporized="">
        <emissions CO_abs="0.00" CO2_abs="0.00" HC_abs="0.00" PMx_abs="0.00" NOx_abs="0.00" fuel_abs="0.00" electricity_abs="0.00"/>
    </tripinfo>
    <tripinfo id="f_0.13" depart="50.00" departLane="D5D4_0" departPos="1.70" departSpeed="0.00" departDelay="5.22" arrival="249.00" arrivalLane="D1D0_0" arrivalPos="187.40" arrivalSpeed="6.28" duration="199.00" routeLength="998.30" waitingTime="29.00" waitingCount="1" stopTime="0.00" timeLoss="44.75" rerouteNo="0" devices="tripinfo_f_0.13 emissions_f_0.13" vType="DEFAULT_BIKETYPE" speedFactor="1.17" vaporized="">
        <emissions CO_abs="0.00" CO2_abs="0.00" HC_abs="0.00" PMx_abs="0.00" NOx_abs="0.00" fuel_abs="0.00" electricity_abs="0.00"/>
    </tripinfo>
    <tripinfo id="f_2.2" depart="20.00" departLane="B0B1_0" departPos="1.70" departSpeed="0.00" departDelay="0.40" arrival="250.00" arrivalLane="B4B5_0" arrivalPos="187.40" arrivalSpeed="6.16" duration="230.00" routeLength="998.30" waitingTime="50.00" waitingCount="2" stopTime="0.00" timeLoss="73.96" rerouteNo="0" devices="tripinfo_f_2.2 emissions_f_2.2" vType="DEFAULT_BIKETYPE" speedFactor="1.16" vaporized="">
        <emissions CO_abs="0.00" CO2_abs="0.00" HC_abs="0.00" PMx_abs="0.00" NOx_abs="0.00" fuel_abs="0.00" electricity_abs="0.00"/>
    </tripinfo>
    <tripinfo id="f_1.8" depart="26.00" departLane="D0D1_0" departPos="1.70" departSpeed="0.00" departDelay="0.77" arrival="251.00" arrivalLane="D4D5_0" arrivalPos="187.40" arrivalSpeed="6.11" duration="225.00" routeLength="998.30" waitingTime="46.00" waitingCount="2" stopTime="0.00" timeLoss="66.09" rerouteNo="0" devices="tripinfo_f_1.8 emissions_f_1.8" vType="DEFAULT_BIKETYPE" speedFactor="1.13" vaporized="">
        <emissions CO_abs="0.00" CO2_abs="0.00" HC_abs="0.00" PMx_abs="0.00" NOx_abs="0.00" fuel_abs="0.00" electricity_abs="0.00"/>
    </tripinfo>
    <tripinfo id="f_1.5" depart="14.00" departLane="D0D1_0" departPos="1.70" departSpeed="0.00" departDelay="1.92" arrival="253.00" arrivalLane="D4D5_0" arrivalPos="187.40" arrivalSpeed="6.16" duration="239.00" routeLength="998.30" waitingTime="57.00" waitingCount="2" stopTime="0.00" timeLoss="78.30" rerouteNo="0" devices="tripinfo_f_1.5 emissions_f_1.5" vType="DEFAULT_BIKETYPE" speedFactor="1.12" vaporized="">
        <emissions CO_abs="0.00" CO2_abs="0.00" HC_abs="0.00" PMx_abs="0.00" NOx_abs="0.00" fuel_abs="0.00" electricity_abs="0.00"/>
    </tripinfo>
    <tripinfo id="f_3.12" depart="45.00" departLane="B5B4_0" departPos="1.70" departSpeed="0.00" departDelay="0.55" arrival="253.00" arrivalLane="B1B0_0" arrivalPos="187.40" arrivalSpeed="5.67" duration="208.00" routeLength="998.30" waitingTime="26.00" waitingCount="1" stopTime="0.00" timeLoss="43.85" rerouteNo="0" devices="tripinfo_f_3.12 emissions_f_3.12" vType="DEFAULT_BIKETYPE" speedFactor="1.10" vaporized="">
        <emissions CO_abs="0.00" CO2_abs="0.00" HC_abs="0.00" PMx_abs="0.00" NOx_abs="0.00" fuel_abs="0.00" electricity_abs="0.00"/>
    </tripinfo>
    <tripinfo id="f_2.0" depart="10.00" departLane="B0B1_0" departPos="1.70" departSpeed="0.00" departDelay="0.64" arrival="255.00" arrivalLane="B4B5_0" arrivalPos="187.40" arrivalSpeed="5.80" duration="245.00" routeLength="998.30" waitingTime="58.00" waitingCount="2" stopTime="0.00" timeLoss="79.33" rerouteNo="0" devices="tripinfo_f_2.0 emissions_f_2.0" vType="DEFAULT_BIKETYPE" speedFactor="1.09" vaporized="">
        <emissions CO_abs="0.00" CO2_abs="0.00" HC_abs="0.00" PMx_abs="0.00" NOx_abs="0.00" fuel_abs="0.00" electricity_abs="0.00"/>
    </tripinfo>
    <tripinfo id="f_1.12" depart="39.00" departLane="D0D1_0" departPos="1.70" departSpeed="0.00" departDelay="2.07" arrival="255.00" arrivalLane="D4D5_0" arrivalPos="187.40" arrivalSpeed="5.55" duration="216.00" routeLength="998.30" waitingTime="31.00" waitingCount="2" stopTime="0.00" timeLoss="52.91" rerouteNo="0" devices="tripinfo_f_1.12 emissions_f_1.12" vType="DEFAULT_BIKETYPE" speedFactor="1.10" vaporized="">
        <emissions CO_abs="0.00" CO2_abs="0.00" HC_abs="0.00" PMx_abs="0.00" NOx_abs="0.00" fuel_abs="0.00" electricity_abs="0.00"/>
    </tripinfo>
    <tripinfo id="f_2.8" depart="42.00" departLane="B0B1_0" departPos="1.70" departSpeed="0.00" departDelay="0.39" arrival="256.00" arrivalLane="B4B5_0" arrivalPos="187.40" arrivalSpeed="5.92" duration="214.00" routeLength="998.30" waitingTime="24.00" waitingCount="2" stopTime="0.00" timeLoss="48.78" rerouteNo="0" devices="tripinfo_f_2.8 emissions_f_2.8" vType="DEFAULT_BIKETYPE" speedFactor="1.09" vaporized="">
        <emissions CO_abs="0.00" CO2_abs="0.00" HC_abs="0.00" PMx_abs="0.00" NOx_abs="0.00" fuel_abs="0.00" electricity_abs="0.00"/>
    </tripinfo>
    <tripinfo id="f_2.1" depart="12.00" departLane="B0B1_0" departPos="1.70" departSpeed="0.00" departDelay="0.91" arrival="257.00" arrivalLane="B4B5_1" arrivalPos="187.40" arrivalSpeed="5.67" duration="245.00" routeLength="998.30" waitingTime="50.00" waitingCount="2" stopTime="0.00" timeLoss="73.23" rerouteNo="0" devices="tripinfo_f_2.1 emissions_f_2.1" vType="DEFAULT_BIKETYPE" speedFactor="1.05" vaporized="">
        <emissions CO_abs="0.00" CO2_abs="0.00" HC_abs="0.00" PMx_abs="0.00" NOx_abs="0.00" fuel_abs="0.00" electricity_abs="0.00"/>
    </tripinfo>
    <tripinfo id="f_2.14" depart="58.00" departLane="B0B1_0" departPos="1.70" departSpeed="0.00" departDelay="5.62" arrival="258.00" arrivalLane="B4B5_0" arrivalPos="187.40" arrivalSpeed="5.73" duration="200.00" routeLength="998.30" waitingTime="13.00" waitingCount="1" stopTime="0.00" timeLoss="38.93" rerouteNo="0" devices="tripinfo_f_2.14 emissions_f_2.14" vType="DEFAULT_BIKETYPE" speedFactor="1.12" vaporized="">
        <emissions CO_abs="0.00" CO2_abs="0.00" HC_abs="0.00" PMx_abs="0.00" NOx_abs="0.00" fuel_abs="0.00" electricity_abs="0.00"/>
    </tripinfo>
    <tripinfo id="f_2.3" depart="22.00" departLane="B0B1_0" departPos="1.70" departSpeed="0.00" departDelay="1.02" arrival="260.00" arrivalLane="B4B5_0" arrivalPos="187.40" arrivalSpeed="5.30" duration="238.00" routeLength="998.30" waitingTime="41.00" waitingCount="2" stopTime="0.00" timeLoss="61.41" rerouteNo="0" devices="tripinfo_f_2.3 emissions_f_2.3" vType="DEFAULT_BIKETYPE" speedFactor="1.02" vaporized="">
        <emissions CO_abs="0.00" CO2_abs="0.00" HC_abs="0.00" PMx_abs="0.00" NOx_abs="0.00" fuel_abs="0.00" electricity_abs="0.00"/>
    </tripinfo>
    <tripinfo id="f_3.3" depart="21.00" departLane="B5B4_0" departPos="1.70" departSpeed="0.00" departDelay="0.63" arrival="260.00" arrivalLane="B1B0_0" arrivalPos="187.40" arrivalSpeed="5.24" duration="239.00" routeLength="998.30" waitingTime="45.00" waitingCount="1" stopTime="0.00" timeLoss="60.53" rerouteNo="0" devices="tripinfo_f_3.3 emissions_f_3.3" vType="DEFAULT_BIKETYPE" speedFactor="1.01" vaporized="">
        <emissions CO_abs="0.00" CO2_abs="0.00" HC_abs="0.00" PMx_abs="0.00" NOx_abs="0.00" fuel_abs="0.00" electricity_abs="0.00"/>
    </tripinfo>
    <tripinfo id="f4063.0" depart="195.00" departLane="C0C1_1" departPos="44.99" departSpeed="13.90" departDelay="0.00" arrival="260.00" arrivalLane="E1E0_0" arrivalPos="186.40" arrivalSpeed="13.36" duration="65.00" routeLength="718.67" waitingTime="0.00" waitingCount="0" stopTime="0.00" timeLoss="12.11" rerouteNo="1" devices="tripinfo_f4063.0 routing_f4063.0 emissions_f4063.0" vType="car" speedFactor="1.04" vaporized="">
        <emissions CO_abs="847.97" CO2_abs="159213.22" HC_abs="5.67" PMx_abs="15.93" NOx_abs="54.53" fuel_abs="51614.74" electricity_abs="0.00"/>
    </tripinfo>
    <tripinfo id="f4034.0" depart="202.00" departLane="E0E1_2" departPos="77.76" departSpeed="13.45" departDelay="0.00" arrival="261.00" arrivalLane="C1C0_2" arrivalPos="186.40" arrivalSpeed="13.31" duration="59.00" routeLength="716.86" waitingTime="0.00" waitingCount="0" stopTime="0.00" timeLoss="3.72" rerouteNo="1" devices="tripinfo_f4034.0 routing_f4034.0 emissions_f4034.0" vType="car" speedFactor="0.97" vaporized="">
        <emissions CO_abs="725.02" CO2_abs="136244.88" HC_abs="4.87" PMx_abs="16.91" NOx_abs="48.10" fuel_abs="44168.99" electricity_abs="0.00"/>
    </tripinfo>
    <tripinfo id="f_3.7" depart="30.00" departLane="B5B4_0" departPos="1.70" departSpeed="0.00" departDelay="3.21" arrival="262.00" arrivalLane="B1B0_0" arrivalPos="187.40" arrivalSpeed="5.37" duration="232.00" routeLength="998.30" waitingTime="34.00" waitingCount="1" stopTime="0.00" timeLoss="52.72" rerouteNo="0" devices="tripinfo_f_3.7 emissions_f_3.7" vType="DEFAULT_BIKETYPE" speedFactor="1.01" vaporized="">
        <emissions CO_abs="0.00" CO2_abs="0.00" HC_abs="0.00" PMx_abs="0.00" NOx_abs="0.00" fuel_abs="0.00" electricity_abs="0.00"/>
    </tripinfo>
    <tripinfo id="f_3.13" depart="48.00" departLane="B5B4_0" departPos="1.70" departSpeed="0.00" departDelay="1.90" arrival="262.00" arrivalLane="B1B0_1" arrivalPos="187.40" arrivalSpeed="5.32" duration="214.00" routeLength="998.30" waitingTime="12.00" waitingCount="1" stopTime="0.00" timeLoss="34.25" rerouteNo="0" devices="tripinfo_f_3.13 emissions_f_3.13" vType="DEFAULT_BIKETYPE" speedFactor="1.00" vaporized="">
        <emissions CO_abs="0.00" CO2_abs="0.00" HC_abs="0.00" PMx_abs="0.00" NOx_abs="0.00" fuel_abs="0.00" electricity_abs="0.00"/>
    </tripinfo>
    <tripinfo id="f_1.6" depart="17.00" departLane="D0D1_0" departPos="1.70" departSpeed="0.00" departDelay="4.52" arrival="263.00" arrivalLane="D4D5_0" arrivalPos="187.40" arrivalSpeed="5.20" duration="246.00" routeLength="998.30" waitingTime="42.00" waitingCount="2" stopTime="0.00" timeLoss="64.64" rerouteNo="0" devices="tripinfo_f_1.6 emissions_f_1.6" vType="DEFAULT_BIKETYPE" speedFactor="0.99" vaporized="">
        <emissions CO_abs="0.00" CO2_abs="0.00" HC_abs="0.00" PMx_abs="0.00" NOx_abs="0.00" fuel_abs="0.00" electricity_abs="0.00"/>
    </tripinfo>
    <tripinfo id="f_2.6" depart="35.00" departLane="B0B1_0" departPos="1.70" departSpeed="0.00" departDelay="0.63" arrival="264.00" arrivalLane="B4B5_0" arrivalPos="187.40" arrivalSpeed="5.36" duration="229.00" routeLength="998.30" waitingTime="19.00" waitingCount="2" stopTime="0.00" timeLoss="43.57" rerouteNo="0" devices="tripinfo_f_2.6 emissions_f_2.6" vType="DEFAULT_BIKETYPE" speedFactor="0.97" vaporized="">
        <emissions CO_abs="0.00" CO2_abs="0.00" HC_abs="0.00" PMx_abs="0.00" NOx_abs="0.00" fuel_abs="0.00" electricity_abs="0.00"/>
    </tripinfo>
    <tripinfo id="f7847.0" depart="233.00" departLane="E3D3_1" departPos="162.55" departSpeed="12.58" departDelay="0.00" arrival="267.00" arrivalLane="C3B3_0" arrivalPos="172.80" arrivalSpeed="11.98" duration="34.00" routeLength="410.25" waitingTime="0.00" waitingCount="0" stopTime="0.00" timeLoss="1.21" rerouteNo="1" devices="tripinfo_f7847.0 routing_f7847.0 emissions_f7847.0" vType="car" speedFactor="0.91" vaporized="">
        <emissions CO_abs="235.06" CO2_abs="56613.55" HC_abs="1.60" PMx_abs="8.48" NOx_abs="20.52" fuel_abs="18353.57" electricity_abs="0.00"/>
    </tripinfo>
    <tripinfo id="f5653.0" depart="180.00" departLane="E1D1_2" departPos="128.43" departSpeed="13.90" departDelay="0.00" arrival="275.00" arrivalLane="B1A1_0" arrivalPos="186.40" arrivalSpeed="13.40" duration="95.00" routeLength="657.97" waitingTime="39.00" waitingCount="1" stopTime="0.00" timeLoss="46.96" rerouteNo="1" devices="tripinfo_f5653.0 routing_f5653.0 emissions_f5653.0" vType="car" speedFactor="1.02" vaporized="">
        <emissions CO_abs="568.83" CO2_abs="182188.38" HC_abs="3.84" PMx_abs="16.09" NOx_abs="66.85" fuel_abs="59063.74" electricity_abs="0.00"/>
    </tripinfo>
    <tripinfo id="f5650.0" depart="243.00" departLane="E1D1_0" departPos="82.77" departSpeed="11.77" departDelay="0.00" arrival="276.00" arrivalLane="D1D0_3" arrivalPos="187.40" arrivalSpeed="13.10" duration="33.00" routeLength="301.14" waitingTime="2.00" waitingCount="1" stopTime="0.00" timeLoss="10.20" rerouteNo="0" devices="tripinfo_f5650.0 routing_f5650.0 emissions_f5650.0" vType="car" speedFactor="1.01" vaporized="">
        <emissions CO_abs="398.71" CO2_abs="81235.35" HC_abs="2.66" PMx_abs="6.97" NOx_abs="28.01" fuel_abs="26335.36" electricity_abs="0.00"/>
    </tripinfo>
    <tripinfo id="f4260.1" depart="220.00" departLane="F1E1_2" departPos="176.11" departSpeed="7.40" departDelay="0.00" arrival="279.00" arrivalLane="C1C0_2" arrivalPos="186.40" arrivalSpeed="12.69" duration="59.00" routeLength="621.20" waitingTime="1.00" waitingCount="1" stopTime="0.00" timeLoss="9.64" rerouteNo="1" devices="tripinfo_f4260.1 routing_f4260.1 emissions_f4260.1" vType="car" speedFactor="0.93" vaporized="">
        <emissions CO_abs="571.69" CO2_abs="133659.68" HC_abs="3.84" PMx_abs="15.31" NOx_abs="46.44" fuel_abs="43330.93" electricity_abs="0.00"/>
    </tripinfo>
    <tripinfo id="f4260.0" depart="199.00" departLane="F1E1_1" departPos="173.00" departSpeed="8.95" departDelay="0.00" arrival="280.00" arrivalLane="C1C0_2" arrivalPos="186.40" arrivalSpeed="13.82" duration="81.00" routeLength="624.31" waitingTime="21.00" waitingCount="1" stopTime="0.00" timeLoss="35.69" rerouteNo="1" devices="tripinfo_f4260.0 routing_f4260.0 emissions_f4260.0" vType="car" speedFactor="1.21" vaporized="">
        <emissions CO_abs="827.72" CO2_abs="184573.52" HC_abs="5.51" PMx_abs="13.54" NOx_abs="64.46" fuel_abs="59836.42" electricity_abs="0.00"/>
    </tripinfo>
    <tripinfo id="f4209.0" depart="262.00" departLane="E5E4_1" departPos="159.23" departSpeed="13.54" departDelay="0.00" arrival="282.00" arrivalLane="E4F4_2" arrivalPos="186.40" arrivalSpeed="13.73" duration="20.00" routeLength="238.08" waitingTime="0.00" waitingCount="0" stopTime="0.00" timeLoss="2.14" rerouteNo="0" devices="tripinfo_f4209.0 routing_f4209.0 emissions_f4209.0" vType="car" speedFactor="1.04" vaporized="">
        <emissions CO_abs="309.28" CO2_abs="51930.08" HC_abs="2.06" PMx_abs="5.36" NOx_abs="17.96" fuel_abs="16835.04" electricity_abs="0.00"/>
    </tripinfo>
    <tripinfo id="f_1.11" depart="37.00" departLane="D0D1_0" departPos="1.70" departSpeed="0.00" departDelay="0.18" arrival="285.00" arrivalLane="D4D5_1" arrivalPos="187.40" arrivalSpeed="6.40" duration="248.00" routeLength="998.30" waitingTime="59.00" waitingCount="3" stopTime="0.00" timeLoss="95.42" rerouteNo="0" devices="tripinfo_f_1.11 emissions_f_1.11" vType="DEFAULT_BIKETYPE" speedFactor="1.18" vaporized="">
        <emissions CO_abs="0.00" CO2_abs="0.00" HC_abs="0.00" PMx_abs="0.00" NOx_abs="0.00" fuel_abs="0.00" electricity_abs="0.00"/>
    </tripinfo>
    <tripinfo id="f_1.10" depart="31.00" departLane="D0D1_0" departPos="1.70" departSpeed="0.00" departDelay="4.82" arrival="286.00" arrivalLane="D4D5_0" arrivalPos="187.40" arrivalSpeed="6.08" duration="255.00" routeLength="998.30" waitingTime="67.00" waitingCount="2" stopTime="0.00" timeLoss="98.51" rerouteNo="0" devices="tripinfo_f_1.10 emissions_f_1.10" vType="DEFAULT_BIKETYPE" speedFactor="1.15" vaporized="">
        <emissions CO_abs="0.00" CO2_abs="0.00" HC_abs="0.00" PMx_abs="0.00" NOx_abs="0.00" fuel_abs="0.00" electricity_abs="0.00"/>
    </tripinfo>
    <tripinfo id="f_1.25" depart="87.00" departLane="D0D1_0" departPos="1.70" departSpeed="0.00" departDelay="2.87" arrival="292.00" arrivalLane="D4D5_0" arrivalPos="187.40" arrivalSpeed="6.09" duration="205.00" routeLength="998.30" waitingTime="25.00" waitingCount="1" stopTime="0.00" timeLoss="43.90" rerouteNo="0" devices="tripinfo_f_1.25 emissions_f_1.25" vType="DEFAULT_BIKETYPE" speedFactor="1.12" vaporized="">
        <emissions CO_abs="0.00" CO2_abs="0.00" HC_abs="0.00" PMx_abs="0.00" NOx_abs="0.00" fuel_abs="0.00" electricity_abs="0.00"/>
    </tripinfo>
    <tripinfo id="f4920.0" depart="197.00" departLane="F3E3_1" departPos="108.12" departSpeed="13.39" departDelay="0.00" arrival="293.00" arrivalLane="C4D4_0" arrivalPos="172.80" arrivalSpeed="13.05" duration="96.00" routeLength="841.94" waitingTime="19.00" waitingCount="1" stopTime="0.00" timeLoss="31.06" rerouteNo="1" devices="tripinfo_f4920.0 routing_f4920.0 emissions_f4920.0" vType="car" speedFactor="0.96" vaporized="">
        <emissions CO_abs="923.20" CO2_abs="211413.46" HC_abs="6.17" PMx_abs="18.89" NOx_abs="74.41" fuel_abs="68537.67" electricity_abs="0.00"/>
    </tripinfo>
    <tripinfo id="f_1.13" depart="42.00" departLane="D0D1_0" departPos="1.70" departSpeed="0.00" departDelay="1.03" arrival="294.00" arrivalLane="D4D5_0" arrivalPos="187.40" arrivalSpeed="5.29" duration="252.00" routeLength="998.30" waitingTime="54.00" waitingCount="2" stopTime="0.00" timeLoss="78.68" rerouteNo="0" devices="tripinfo_f_1.13 emissions_f_1.13" vType="DEFAULT_BIKETYPE" speedFactor="1.04" vaporized="">
        <emissions CO_abs="0.00" CO2_abs="0.00" HC_abs="0.00" PMx_abs="0.00" NOx_abs="0.00" fuel_abs="0.00" electricity_abs="0.00"/>
    </tripinfo>
    <tripinfo id="f_1.14" depart="44.00" departLane="D0D1_0" departPos="1.70" departSpeed="0.00" departDelay="2.40" arrival="294.00" arrivalLane="D4D5_1" arrivalPos="187.40" arrivalSpeed="5.29" duration="250.00" routeLength="998.30" waitingTime="51.00" waitingCount="2" stopTime="0.00" timeLoss="77.40" rerouteNo="0" devices="tripinfo_f_1.14 emissions_f_1.14" vType="DEFAULT_BIKETYPE" speedFactor="1.04" vaporized="">
        <emissions CO_abs="0.00" CO2_abs="0.00" HC_abs="0.00" PMx_abs="0.00" NOx_abs="0.00" fuel_abs="0.00" electricity_abs="0.00"/>
    </tripinfo>
    <tripinfo id="f_2.16" depart="63.00" departLane="B0B1_0" departPos="1.70" departSpeed="0.00" departDelay="3.57" arrival="294.00" arrivalLane="B4B5_0" arrivalPos="187.40" arrivalSpeed="5.74" duration="231.00" routeLength="998.30" waitingTime="39.00" waitingCount="1" stopTime="0.00" timeLoss="57.82" rerouteNo="0" devices="tripinfo_f_2.16 emissions_f_2.16" vType="DEFAULT_BIKETYPE" speedFactor="1.04" vaporized="">
        <emissions CO_abs="0.00" CO2_abs="0.00" HC_abs="0.00" PMx_abs="0.00" NOx_abs="0.00" fuel_abs="0.00" electricity_abs="0.00"/>
    </tripinfo>
    <tripinfo id="f4129.0" depart="203.00" departLane="A3B3_0" departPos="182.08" departSpeed="4.32" departDelay="0.00" arrival="294.00" arrivalLane="B4A4_2" arrivalPos="186.40" arrivalSpeed="13.89" duration="91.00" routeLength="412.94" waitingTime="44.00" waitingCount="3" stopTime="0.00" timeLoss="60.53" rerouteNo="1" devices="tripinfo_f4129.0 routing_f4129.0 emissions_f4129.0" vType="car" speedFactor="1.09" vaporized="">
        <emissions CO_abs="597.92" CO2_abs="197005.41" HC_abs="3.98" PMx_abs="10.29" NOx_abs="70.24" fuel_abs="63866.84" electricity_abs="0.00"/>
    </tripinfo>
    <tripinfo id="f_2.17" depart="67.00" departLane="B0B1_0" departPos="1.70" departSpeed="0.00" departDelay="0.14" arrival="295.00" arrivalLane="B4B5_1" arrivalPos="187.40" arrivalSpeed="5.72" duration="228.00" routeLength="998.30" waitingTime="40.00" waitingCount="1" stopTime="0.00" timeLoss="57.28" rerouteNo="0" devices="tripinfo_f_2.17 emissions_f_2.17" vType="DEFAULT_BIKETYPE" speedFactor="1.06" vaporized="">
        <emissions CO_abs="0.00" CO2_abs="0.00" HC_abs="0.00" PMx_abs="0.00" NOx_abs="0.00" fuel_abs="0.00" electricity_abs="0.00"/>
    </tripinfo>
    <tripinfo id="f_1.16" depart="55.00" departLane="D0D1_0" departPos="1.70" departSpeed="0.00" departDelay="0.36" arrival="297.00" arrivalLane="D4D5_0" arrivalPos="187.40" arrivalSpeed="5.42" duration="242.00" routeLength="998.30" waitingTime="46.00" waitingCount="1" stopTime="0.00" timeLoss="64.53" rerouteNo="0" devices="tripinfo_f_1.16 emissions_f_1.16" vType="DEFAULT_BIKETYPE" speedFactor="1.02" vaporized="">
        <emissions CO_abs="0.00" CO2_abs="0.00" HC_abs="0.00" PMx_abs="0.00" NOx_abs="0.00" fuel_abs="0.00" electricity_abs="0.00"/>
    </tripinfo>