<?xml version="1.0" encoding="UTF-8"?>

<!-- generated on 2026-01-30T11:42:27.020525+01:00 by Eclipse SUMO GUI 1.25.0
<sumoConfiguration xmlns:xsi="http://www.w3.org/2001/XMLSchema-instance" xsi:noNamespaceSchemaLocation="http://sumo.dlr.de/xsd/sumoConfiguration.xsd">

    <input>
        <net-file value="ff.net.xml"/>
        <route-files value="ff_heterogeneous.rou.xml"/>
    </input>

    <output>
        <emission-output value="emissions.xml"/>
        <queue-output value="queue_maxpressure.xml"/>
        <summary-output value="summary.xml"/>
        <tripinfo-output value="tripinfo_maxpressure.xml"/>
    </output>

    <time>
        <begin value="0"/>
        <end value="3600"/>
    </time>

    <traci_server>
        <remote-port value="54532"/>
    </traci_server>

</sumoConfiguration>
-->

<tripinfos xmlns:xsi="http://www.w3.org/2001/XMLSchema-instance" xsi:noNamespaceSchemaLocation="http://sumo.dlr.de/xsd/tripinfo_file.xsd">
    <tripinfo id="f_5.0" depart="0.00" departLane="C0C1_0" departPos="12.10" departSpeed="0.00" departDelay="0.00" arrival="140.00" arrivalLane="C4C5_0" arrivalPos="186.40" arrivalSpeed="13.40" duration="140.00" routeLength="987.90" waitingTime="42.00" waitingCount="2" stopTime="0.00" timeLoss="68.62" rerouteNo="0" devices="tripinfo_f_5.0 emissions_f_5.0" vType="bus" speedFactor="1.00" vaporized="">
        <emissions CO_abs="356.34" CO2_abs="1525307.31" HC_abs="28.71" PMx_abs="211.66" NOx_abs="672.40" fuel_abs="490184.82" electricity_abs="0.00"/>
    </tripinfo>
    <tripinfo id="f_4.1" depart="60.00" departLane="C5C4_0" departPos="12.10" departSpeed="0.00" departDelay="0.00" arrival="140.00" arrivalLane="C1C0_1" arrivalPos="186.40" arrivalSpeed="13.79" duration="80.00" routeLength="987.90" waitingTime="0.00" waitingCount="0" stopTime="0.00" timeLoss="8.06" rerouteNo="0" devices="tripinfo_f_4.1 emissions_f_4.1" vType="bus" speedFactor="1.00" vaporized="">
        <emissions CO_abs="200.63" CO2_abs="1063574.11" HC_abs="19.40" PMx_abs="133.48" NOx_abs="431.81" fuel_abs="341793.88" electricity_abs="0.00"/>
    </tripinfo>
    <tripinfo id="f_4.0" depart="0.00" departLane="C5C4_0" departPos="12.10" departSpeed="0.00" departDelay="0.00" arrival="141.00" arrivalLane="C1C0_0" arrivalPos="186.40" arrivalSpeed="13.83" duration="141.00" routeLength="987.90" waitingTime="43.00" waitingCount="2" stopTime="0.00" timeLoss="69.75" rerouteNo="0" devices="tripinfo_f_4.0 emissions_f_4.0" vType="bus" speedFactor="1.00" vaporized="">
        <emissions CO_abs="359.31" CO2_abs="1549576.22" HC_abs="28.95" PMx_abs="211.72" NOx_abs="675.12" fuel_abs="497984.72" electricity_abs="0.00"/>
    </tripinfo>
    <tripinfo id="f_5.1" depart="60.00" departLane="C0C1_0" departPos="12.10" departSpeed="0.00" departDelay="0.00" arrival="171.00" arrivalLane="C4C5_0" arrivalPos="186.40" arrivalSpeed="13.78" duration="111.00" routeLength="987.90" waitingTime="13.00" waitingCount="2" stopTime="0.00" timeLoss="39.12" rerouteNo="0" devices="tripinfo_f_5.1 emissions_f_5.1" vType="bus" speedFactor="1.00" vaporized="">
        <emissions CO_abs="298.61" CO2_abs="1481064.73" HC_abs="25.36" PMx_abs="169.12" NOx_abs="551.48" fuel_abs="475967.03" electricity_abs="0.00"/>
    </tripinfo>
    <tripinfo id="f_0.0" depart="1.00" departLane="D5D4_0" departPos="1.70" departSpeed="0.00" departDelay="0.65" arrival="221.00" arrivalLane="D1D0_0" arrivalPos="187.40" arrivalSpeed="5.64" duration="220.00" routeLength="998.30" waitingTime="24.00" waitingCount="3" stopTime="0.00" timeLoss="49.69" rerouteNo="0" devices="tripinfo_f_0.0 emissions_f_0.0" vType="bike" speedFactor="1.06" vaporized="">
        <emissions CO_abs="0.00" CO2_abs="0.00" HC_abs="0.00" PMx_abs="0.00" NOx_abs="0.00" fuel_abs="0.00" electricity_abs="0.00"/>
    </tripinfo>
    <tripinfo id="f_3.2" depart="7.00" departLane="B5B4_0" departPos="1.70" departSpeed="0.00" departDelay="2.12" arrival="221.00" arrivalLane="B1B0_0" arrivalPos="187.40" arrivalSpeed="5.58" duration="214.00" routeLength="998.30" waitingTime="15.00" waitingCount="2" stopTime="0.00" timeLoss="41.38" rerouteNo="0" devices="tripinfo_f_3.2 emissions_f_3.2" vType="bike" speedFactor="1.05" vaporized="">
        <emissions CO_abs="0.00" CO2_abs="0.00" HC_abs="0.00" PMx_abs="0.00" NOx_abs="0.00" fuel_abs="0.00" electricity_abs="0.00"/>
    </tripinfo>
    <tripinfo id="f_3.0" depart="3.00" departLane="B5B4_0" departPos="1.70" departSpeed="0.00" departDelay="0.85" arrival="222.00" arrivalLane="B1B0_1" arrivalPos="187.40" arrivalSpeed="5.50" duration="219.00" routeLength="998.30" waitingTime="18.00" waitingCount="3" stopTime="0.00" timeLoss="43.66" rerouteNo="0" devices="tripinfo_f_3.0 emissions_f_3.0" vType="bike" speedFactor="1.03" vaporized="">
        <emissions CO_abs="0.00" CO2_abs="0.00" HC_abs="0.00" PMx_abs="0.00" NOx_abs="0.00" fuel_abs="0.00" electricity_abs="0.00"/>
    </tripinfo>
    <tripinfo id="f_0.2" depart="12.00" departLane="D5D4_0" departPos="1.70" departSpeed="0.00" departDelay="0.56" arrival="222.00" arrivalLane="D1D0_1" arrivalPos="187.40" arrivalSpeed="5.31" duration="210.00" routeLength="998.30" waitingTime="12.00" waitingCount="2" stopTime="0.00" timeLoss="34.25" rerouteNo="0" devices="tripinfo_f_0.2 emissions_f_0.2" vType="bike" speedFactor="1.03" vaporized="">
        <emissions CO_abs="0.00" CO2_abs="0.00" HC_abs="0.00" PMx_abs="0.00" NOx_abs="0.00" fuel_abs="0.00" electricity_abs="0.00"/>
    </tripinfo>
    <tripinfo id="f_1.1" depart="4.00" departLane="D0D1_0" departPos="1.70" departSpeed="0.00" departDelay="2.07" arrival="227.00" arrivalLane="D4D5_0" arrivalPos="187.40" arrivalSpeed="5.47" duration="223.00" routeLength="998.30" waitingTime="36.00" waitingCount="2" stopTime="0.00" timeLoss="56.55" rerouteNo="0" devices="tripinfo_f_1.1 emissions_f_1.1" vType="bike" speedFactor="1.08" vaporized="">
        <emissions CO_abs="0.00" CO2_abs="0.00" HC_abs="0.00" PMx_abs="0.00" NOx_abs="0.00" fuel_abs="0.00" electricity_abs="0.00"/>
    </tripinfo>
    <tripinfo id="f_1.0" depart="2.00" departLane="D0D1_0" departPos="1.70" departSpeed="0.00" departDelay="0.97" arrival="231.00" arrivalLane="D4D5_0" arrivalPos="187.40" arrivalSpeed="5.03" duration="229.00" routeLength="998.30" waitingTime="30.00" waitingCount="2" stopTime="0.00" timeLoss="50.72" rerouteNo="0" devices="tripinfo_f_1.0 emissions_f_1.0" vType="bike" speedFactor="1.01" vaporized="">
        <emissions CO_abs="0.00" CO2_abs="0.00" HC_abs="0.00" PMx_abs="0.00" NOx_abs="0.00" fuel_abs="0.00" electricity_abs="0.00"/>
    </tripinfo>
    <tripinfo id="f_4.2" depart="120.00" departLane="C5C4_0" departPos="12.10" departSpeed="0.00" departDelay="0.00" arrival="232.00" arrivalLane="C1C0_0" arrivalPos="186.40" arrivalSpeed="13.29" duration="112.00" routeLength="987.90" waitingTime="11.00" waitingCount="2" stopTime="0.00" timeLoss="40.55" rerouteNo="0" devices="tripinfo_f_4.2 emissions_f_4.2" vType="bus" speedFactor="1.00" vaporized="">
        <emissions CO_abs="300.75" CO2_abs="1456625.41" HC_abs="25.36" PMx_abs="173.19" NOx_abs="560.12" fuel_abs="468112.30" electricity_abs="0.00"/>
    </tripinfo>
    <tripinfo id="f7091.0" depart="191.00" departLane="D2C2_0" departPos="40.90" departSpeed="13.72" departDelay="0.00" arrival="243.00" arrivalLane="C2B2_0" arrivalPos="172.80" arrivalSpeed="13.34" duration="52.00" routeLength="331.90" waitingTime="21.00" waitingCount="1" stopTime="0.00" timeLoss="27.53" rerouteNo="0" devices="tripinfo_f7091.0 routing_f7091.0 emissions_f7091.0" vType="car" speedFactor="0.99" vaporized="">
        <emissions CO_abs="373.81" CO2_abs="105862.26" HC_abs="2.49" PMx_abs="7.06" NOx_abs="38.09" fuel_abs="34319.30" electricity_abs="0.00"/>
    </tripinfo>
    <tripinfo id="f5357.0" depart="186.00" departLane="C3C4_2" departPos="162.27" departSpeed="7.52" departDelay="0.00" arrival="245.00" arrivalLane="E4F4_0" arrivalPos="186.40" arrivalSpeed="12.56" duration="59.00" routeLength="605.96" waitingTime="7.00" waitingCount="1" stopTime="0.00" timeLoss="12.80" rerouteNo="1" devices="tripinfo_f5357.0 routing_f5357.0 emissions_f5357.0" vType="car" speedFactor="0.97" vaporized="">
        <emissions CO_abs="560.29" CO2_abs="127915.91" HC_abs="3.77" PMx_abs="14.57" NOx_abs="45.27" fuel_abs="41468.81" electricity_abs="0.00"/>
    </tripinfo>
    <tripinfo id="f5254.0" depart="214.00" departLane="C2B2_2" departPos="101.80" departSpeed="12.04" departDelay="0.00" arrival="247.00" arrivalLane="B2A2_0" arrivalPos="186.40" arrivalSpeed="11.17" duration="33.00" routeLength="284.60" waitingTime="0.00" waitingCount="0" stopTime="0.00" timeLoss="9.23" rerouteNo="0" devices="tripinfo_f5254.0 routing_f5254.0 emissions_f5254.0" vType="car" speedFactor="0.87" vaporized="">
        <emissions CO_abs="226.81" CO2_abs="66914.49" HC_abs="1.52" PMx_abs="6.19" NOx_abs="21.88" fuel_abs="21692.74" electricity_abs="0.00"/>
    </tripinfo>
    <tripinfo id="f_3.8" depart="33.00" departLane="B5B4_0" departPos="1.70" departSpeed="0.00" departDelay="5.07" arrival="249.00" arrivalLane="B1B0_0" arrivalPos="187.40" arrivalSpeed="5.91" duration="216.00" routeLength="998.30" waitingTime="44.00" waitingCount="1" stopTime="0.00" timeLoss="62.18" rerouteNo="0" devices="tripinfo_f_3.8 emissions_f_3.8" vType="bike" speedFactor="1.17" vaporized="">
        <emissions CO_abs="0.00" CO2_abs="0.00" HC_abs="0.00" PMx_abs="0.00" NOx_abs="0.00" fuel_abs="0.00" electricity_abs="0.00"/>
    </tripinfo>
    <tripinfo id="f_0.13" depart="50.00" departLane="D5D4_0" departPos="1.70" departSpeed="0.00" departDelay="5.22" arrival="249.00" arrivalLane="D1D0_0" arrivalPos="187.40" arrivalSpeed="6.05" duration="199.00" routeLength="998.30" waitingTime="28.00" waitingCount="1" stopTime="0.00" timeLoss="45.29" rerouteNo="0" devices="tripinfo_f_0.13 emissions_f_0.13" vType="bike" speedFactor="1.17" vaporized="">
        <emissions CO_abs="0.00" CO2_abs="0.00" HC_abs="0.00" PMx_abs="0.00" NOx_abs="0.00" fuel_abs="0.00" electricity_abs="0.00"/>
    </tripinfo>
    <tripinfo id="f4146.0" depart="200.00" departLane="A4B4_1" departPos="16.03" departSpeed="13.90" departDelay="0.00" arrival="254.00" arrivalLane="C4C5_2" arrivalPos="186.40" arrivalSpeed="12.96" duration="54.00" routeLength="581.28" waitingTime="2.00" waitingCount="1" stopTime="0.00" timeLoss="11.23" rerouteNo="1" devices="tripinfo_f4146.0 routing_f4146.0 emissions_f4146.0" vType="car" speedFactor="1.02" vaporized="">
        <emissions CO_abs="639.40" CO2_abs="128319.48" HC_abs="4.28" PMx_abs="13.72" NOx_abs="44.70" fuel_abs="41599.51" electricity_abs="0.00"/>
    </tripinfo>
    <tripinfo id="f_3.14" depart="52.00" departLane="B5B4_0" departPos="1.70" departSpeed="0.00" departDelay="0.50" arrival="255.00" arrivalLane="B1B0_0" arrivalPos="187.40" arrivalSpeed="5.84" duration="203.00" routeLength="998.30" waitingTime="20.00" waitingCount="1" stopTime="0.00" timeLoss="36.09" rerouteNo="0" devices="tripinfo_f_3.14 emissions_f_3.14" vType="bike" speedFactor="1.08" vaporized="">
        <emissions CO_abs="0.00" CO2_abs="0.00" HC_abs="0.00" PMx_abs="0.00" NOx_abs="0.00" fuel_abs="0.00" electricity_abs="0.00"/>
    </tripinfo>
    <tripinfo id="f_3.12" depart="45.00" departLane="B5B4_0" departPos="1.70" departSpeed="0.00" departDelay="0.55" arrival="256.00" arrivalLane="B1B0_1" arrivalPos="187.40" arrivalSpeed="5.80" duration="211.00" routeLength="998.30" waitingTime="26.00" waitingCount="1" stopTime="0.00" timeLoss="46.36" rerouteNo="0" devices="tripinfo_f_3.12 emissions_f_3.12" vType="bike" speedFactor="1.10" vaporized="">
        <emissions CO_abs="0.00" CO2_abs="0.00" HC_abs="0.00" PMx_abs="0.00" NOx_abs="0.00" fuel_abs="0.00" electricity_abs="0.00"/>
    </tripinfo>
    <tripinfo id="f_3.3" depart="21.00" departLane="B5B4_0" departPos="1.70" departSpeed="0.00" departDelay="0.63" arrival="260.00" arrivalLane="B1B0_1" arrivalPos="187.40" arrivalSpeed="5.31" duration="239.00" routeLength="998.30" waitingTime="40.00" waitingCount="2" stopTime="0.00" timeLoss="60.80" rerouteNo="0" devices="tripinfo_f_3.3 emissions_f_3.3" vType="bike" speedFactor="1.01" vaporized="">
        <emissions CO_abs="0.00" CO2_abs="0.00" HC_abs="0.00" PMx_abs="0.00" NOx_abs="0.00" fuel_abs="0.00" electricity_abs="0.00"/>
    </tripinfo>
    <tripinfo id="f_3.10" depart="38.00" departLane="B5B4_0" departPos="1.70" departSpeed="0.00" departDelay="0.52" arrival="260.00" arrivalLane="B1B0_0" arrivalPos="187.40" arrivalSpeed="5.16" duration="222.00" routeLength="998.30" waitingTime="26.00" waitingCount="2" stopTime="0.00" timeLoss="47.57" rerouteNo="0" devices="tripinfo_f_3.10 emissions_f_3.10" vType="bike" speedFactor="1.03" vaporized="">
        <emissions CO_abs="0.00" CO2_abs="0.00" HC_abs="0.00" PMx_abs="0.00" NOx_abs="0.00" fuel_abs="0.00" electricity_abs="0.00"/>
    </tripinfo>
    <tripinfo id="f_3.4" depart="23.00" departLane="B5B4_0" departPos="1.70" departSpeed="0.00" departDelay="2.05" arrival="262.00" arrivalLane="B1B0_1" arrivalPos="187.40" arrivalSpeed="5.35" duration="239.00" routeLength="998.30" waitingTime="29.00" waitingCount="3" stopTime="0.00" timeLoss="54.54" rerouteNo="0" devices="tripinfo_f_3.4 emissions_f_3.4" vType="bike" speedFactor="0.97" vaporized="">
        <emissions CO_abs="0.00" CO2_abs="0.00" HC_abs="0.00" PMx_abs="0.00" NOx_abs="0.00" fuel_abs="0.00" electricity_abs="0.00"/>
    </tripinfo>
    <tripinfo id="f_3.9" depart="35.00" departLane="B5B4_0" departPos="1.70" departSpeed="0.00" departDelay="3.72" arrival="262.00" arrivalLane="B1B0_0" arrivalPos="187.40" arrivalSpeed="5.39" duration="227.00" routeLength="998.30" waitingTime="23.00" waitingCount="2" stopTime="0.00" timeLoss="46.21" rerouteNo="0" devices="tripinfo_f_3.9 emissions_f_3.9" vType="bike" speedFactor="0.99" vaporized="">
        <emissions CO_abs="0.00" CO2_abs="0.00" HC_abs="0.00" PMx_abs="0.00" NOx_abs="0.00" fuel_abs="0.00" electricity_abs="0.00"/>
    </tripinfo>
    <tripinfo id="f4034.0" depart="202.00" departLane="E0E1_2" departPos="77.76" departSpeed="13.45" departDelay="0.00" arrival="263.00" arrivalLane="C1C0_2" arrivalPos="186.40" arrivalSpeed="13.01" duration="61.00" routeLength="716.86" waitingTime="0.00" waitingCount="0" stopTime="0.00" timeLoss="5.55" rerouteNo="1" devices="tripinfo_f4034.0 routing_f4034.0 emissions_f4034.0" vType="car" speedFactor="0.97" vaporized="">
        <emissions CO_abs="827.12" CO2_abs="148064.61" HC_abs="5.53" PMx_abs="16.33" NOx_abs="51.63" fuel_abs="48000.68" electricity_abs="0.00"/>
    </tripinfo>
    <tripinfo id="f_0.8" depart="33.00" departLane="D5D4_0" departPos="1.70" departSpeed="0.00" departDelay="0.84" arrival="266.00" arrivalLane="D1D0_0" arrivalPos="187.40" arrivalSpeed="5.65" duration="233.00" routeLength="998.30" waitingTime="25.00" waitingCount="3" stopTime="0.00" timeLoss="55.86" rerouteNo="0" devices="tripinfo_f_0.8 emissions_f_0.8" vType="bike" speedFactor="1.02" vaporized="">
        <emissions CO_abs="0.00" CO2_abs="0.00" HC_abs="0.00" PMx_abs="0.00" NOx_abs="0.00" fuel_abs="0.00" electricity_abs="0.00"/>
    </tripinfo>
    <tripinfo id="f5419.0" depart="241.00" departLane="C4D4_1" departPos="77.23" departSpeed="13.90" departDelay="0.00" arrival="266.00" arrivalLane="D4D5_3" arrivalPos="187.40" arrivalSpeed="13.51" duration="25.00" routeLength="306.68" waitingTime="0.00" waitingCount="0" stopTime="0.00" timeLoss="2.10" rerouteNo="0" devices="tripinfo_f5419.0 routing_f5419.0 emissions_f5419.0" vType="car" speedFactor="1.12" vaporized="">
        <emissions CO_abs="351.64" CO2_abs="61955.32" HC_abs="2.36" PMx_abs="7.35" NOx_abs="21.75" fuel_abs="20085.15" electricity_abs="0.00"/>
    </tripinfo>
    <tripinfo id="f_5.2" depart="120.00" departLane="C0C1_0" departPos="12.10" departSpeed="0.00" departDelay="0.00" arrival="267.00" arrivalLane="C4C5_0" arrivalPos="186.40" arrivalSpeed="13.64" duration="147.00" routeLength="987.90" waitingTime="47.00" waitingCount="2" stopTime="0.00" timeLoss="74.91" rerouteNo="0" devices="tripinfo_f_5.2 emissions_f_5.2" vType="bus" speedFactor="1.00" vaporized="">
        <emissions CO_abs="373.06" CO2_abs="1564654.26" HC_abs="29.91" PMx_abs="223.97" NOx_abs="709.32" fuel_abs="502829.64" electricity_abs="0.00"/>
    </tripinfo>
    <tripinfo id="f7847.0" depart="233.00" departLane="E3D3_1" departPos="162.55" departSpeed="12.58" departDelay="0.00" arrival="267.00" arrivalLane="C3B3_0" arrivalPos="172.80" arrivalSpeed="12.04" duration="34.00" routeLength="410.25" waitingTime="0.00" waitingCount="0" stopTime="0.00" timeLoss="1.34" rerouteNo="1" devices="tripinfo_f7847.0 routing_f7847.0 emissions_f7847.0" vType="car" speedFactor="0.91" vaporized="">
        <emissions CO_abs="230.80" CO2_abs="54872.84" HC_abs="1.56" PMx_abs="8.11" NOx_abs="19.85" fuel_abs="17789.24" electricity_abs="0.00"/>
    </tripinfo>
    <tripinfo id="f5650.0" depart="243.00" departLane="E1D1_1" departPos="87.60" departSpeed="13.90" departDelay="0.00" arrival="267.00" arrivalLane="D1D0_3" arrivalPos="187.40" arrivalSpeed="13.30" duration="24.00" routeLength="296.31" waitingTime="0.00" waitingCount="0" stopTime="0.00" timeLoss="1.58" rerouteNo="0" devices="tripinfo_f5650.0 routing_f5650.0 emissions_f5650.0" vType="car" speedFactor="1.01" vaporized="">
        <emissions CO_abs="287.75" CO2_abs="51563.75" HC_abs="1.93" PMx_abs="6.49" NOx_abs="18.35" fuel_abs="16716.36" electricity_abs="0.00"/>
    </tripinfo>
    <tripinfo id="f4063.0" depart="195.00" departLane="C0C1_1" departPos="44.99" departSpeed="13.90" departDelay="0.00" arrival="268.00" arrivalLane="E1E0_0" arrivalPos="186.40" arrivalSpeed="13.57" duration="73.00" routeLength="718.67" waitingTime="0.00" waitingCount="0" stopTime="0.00" timeLoss="20.01" rerouteNo="1" devices="tripinfo_f4063.0 routing_f4063.0 emissions_f4063.0" vType="car" speedFactor="1.04" vaporized="">
        <emissions CO_abs="828.19" CO2_abs="168820.73" HC_abs="5.53" PMx_abs="16.09" NOx_abs="58.60" fuel_abs="54729.48" electricity_abs="0.00"/>
    </tripinfo>
    <tripinfo id="f_0.9" depart="39.00" departLane="D5D4_0" departPos="1.70" departSpeed="0.00" departDelay="0.55" arrival="270.00" arrivalLane="D1D0_0" arrivalPos="187.40" arrivalSpeed="4.77" duration="231.00" routeLength="998.30" waitingTime="19.00" waitingCount="2" stopTime="0.00" timeLoss="42.45" rerouteNo="0" devices="tripinfo_f_0.9 emissions_f_0.9" vType="bike" speedFactor="0.96" vaporized="">
        <emissions CO_abs="0.00" CO2_abs="0.00" HC_abs="0.00" PMx_abs="0.00" NOx_abs="0.00" fuel_abs="0.00" electricity_abs="0.00"/>
    </tripinfo>
    <tripinfo id="f_1.9" depart="28.00" departLane="D0D1_0" departPos="1.70" departSpeed="0.00" departDelay="1.96" arrival="272.00" arrivalLane="D4D5_2" arrivalPos="187.40" arrivalSpeed="6.53" duration="244.00" routeLength="998.30" waitingTime="65.00" waitingCount="4" stopTime="0.00" timeLoss="91.25" rerouteNo="0" devices="tripinfo_f_1.9 emissions_f_1.9" vType="bike" speedFactor="1.18" vaporized="">
        <emissions CO_abs="0.00" CO2_abs="0.00" HC_abs="0.00" PMx_abs="0.00" NOx_abs="0.00" fuel_abs="0.00" electricity_abs="0.00"/>
    </tripinfo>
    <tripinfo id="f_1.8" depart="26.00" departLane="D0D1_0" departPos="1.70" departSpeed="0.00" departDelay="0.77" arrival="273.00" arrivalLane="D4D5_1" arrivalPos="187.40" arrivalSpeed="5.69" duration="247.00" routeLength="998.30" waitingTime="65.00" waitingCount="3" stopTime="0.00" timeLoss="88.22" rerouteNo="0" devices="tripinfo_f_1.8 emissions_f_1.8" vType="bike" speedFactor="1.13" vaporized="">
        <emissions CO_abs="0.00" CO2_abs="0.00" HC_abs="0.00" PMx_abs="0.00" NOx_abs="0.00" fuel_abs="0.00" electricity_abs="0.00"/>
    </tripinfo>
    <tripinfo id="f_1.5" depart="14.00" departLane="D0D1_0" departPos="1.70" departSpeed="0.00" departDelay="1.92" arrival="274.00" arrivalLane="D4D5_0" arrivalPos="187.40" arrivalSpeed="5.91" duration="260.00" routeLength="998.30" waitingTime="76.00" waitingCount="3" stopTime="0.00" timeLoss="99.56" rerouteNo="0" devices="tripinfo_f_1.5 emissions_f_1.5" vType="bike" speedFactor="1.12" vaporized="">
        <emissions CO_abs="0.00" CO2_abs="0.00" HC_abs="0.00" PMx_abs="0.00" NOx_abs="0.00" fuel_abs="0.00" electricity_abs="0.00"/>
    </tripinfo>
    <tripinfo id="f5653.0" depart="180.00" departLane="E1D1_2" departPos="128.43" departSpeed="13.90" departDelay="0.00" arrival="275.00" arrivalLane="B1A1_0" arrivalPos="186.40" arrivalSpeed="13.23" duration="95.00" routeLength="657.97" waitingTime="39.00" waitingCount="1" stopTime="0.00" timeLoss="46.99" rerouteNo="1" devices="tripinfo_f5653.0 routing_f5653.0 emissions_f5653.0" vType="car" speedFactor="1.02" vaporized="">
        <emissions CO_abs="625.04" CO2_abs="179577.29" HC_abs="4.20" PMx_abs="14.04" NOx_abs="65.70" fuel_abs="58217.13" electricity_abs="0.00"/>
    </tripinfo>
    <tripinfo id="f_1.12" depart="39.00" departLane="D0D1_0" departPos="1.70" departSpeed="0.00" departDelay="2.07" arrival="277.00" arrivalLane="D4D5_0" arrivalPos="187.40" arrivalSpeed="5.90" duration="238.00" routeLength="998.30" waitingTime="45.00" waitingCount="3" stopTime="0.00" timeLoss="74.14" rerouteNo="0" devices="tripinfo_f_1.12 emissions_f_1.12" vType="bike" speedFactor="1.10" vaporized="">
        <emissions CO_abs="0.00" CO2_abs="0.00" HC_abs="0.00" PMx_abs="0.00" NOx_abs="0.00" fuel_abs="0.00" electricity_abs="0.00"/>
    </tripinfo>
    <tripinfo id="f4260.0" depart="199.00" departLane="F1E1_1" departPos="173.00" departSpeed="8.95" departDelay="0.00" arrival="277.00" arrivalLane="C1C0_2" arrivalPos="186.40" arrivalSpeed="13.15" duration="78.00" routeLength="624.31" waitingTime="22.00" waitingCount="1" stopTime="0.00" timeLoss="32.34" rerouteNo="1" devices="tripinfo_f4260.0 routing_f4260.0 emissions_f4260.0" vType="car" speedFactor="1.21" vaporized="">
        <emissions CO_abs="712.51" CO2_abs="171963.46" HC_abs="4.77" PMx_abs="14.45" NOx_abs="60.47" fuel_abs="55748.51" electricity_abs="0.00"/>
    </tripinfo>
    <tripinfo id="f_2.2" depart="20.00" departLane="B0B1_0" departPos="1.70" departSpeed="0.00" departDelay="0.40" arrival="278.00" arrivalLane="B4B5_0" arrivalPos="187.40" arrivalSpeed="6.13" duration="258.00" routeLength="998.30" waitingTime="75.00" waitingCount="3" stopTime="0.00" timeLoss="102.78" rerouteNo="0" devices="tripinfo_f_2.2 emissions_f_2.2" vType="bike" speedFactor="1.16" vaporized="">
        <emissions CO_abs="0.00" CO2_abs="0.00" HC_abs="0.00" PMx_abs="0.00" NOx_abs="0.00" fuel_abs="0.00" electricity_abs="0.00"/>
    </tripinfo>
    <tripinfo id="f4050.0" depart="215.00" departLane="D0D1_2" departPos="111.07" departSpeed="12.14" departDelay="1.00" arrival="278.00" arrivalLane="B1B0_3" arrivalPos="187.40" arrivalSpeed="11.70" duration="63.00" routeLength="683.95" waitingTime="0.00" waitingCount="0" stopTime="0.00" timeLoss="4.34" rerouteNo="1" devices="tripinfo_f4050.0 routing_f4050.0 emissions_f4050.0" vType="car" speedFactor="0.87" vaporized="">
        <emissions CO_abs="544.21" CO2_abs="126327.96" HC_abs="3.65" PMx_abs="15.19" NOx_abs="44.24" fuel_abs="40954.10" electricity_abs="0.00"/>
    </tripinfo>
    <tripinfo id="f_1.6" depart="17.00" departLane="D0D1_0" departPos="1.70" departSpeed="0.00" departDelay="4.52" arrival="280.00" arrivalLane="D4D5_0" arrivalPos="187.40" arrivalSpeed="5.43" duration="263.00" routeLength="998.30" waitingTime="56.00" waitingCount="3" stopTime="0.00" timeLoss="81.54" rerouteNo="0" devices="tripinfo_f_1.6 emissions_f_1.6" vType="bike" speedFactor="0.99" vaporized="">
        <emissions CO_abs="0.00" CO2_abs="0.00" HC_abs="0.00" PMx_abs="0.00" NOx_abs="0.00" fuel_abs="0.00" electricity_abs="0.00"/>
    </tripinfo>
    <tripinfo id="f_2.8" depart="42.00" departLane="B0B1_0" departPos="1.70" departSpeed="0.00" departDelay="0.39" arrival="280.00" arrivalLane="B4B5_0" arrivalPos="187.40" arrivalSpeed="5.76" duration="238.00" routeLength="998.30" waitingTime="41.00" waitingCount="3" stopTime="0.00" timeLoss="72.74" rerouteNo="0" devices="tripinfo_f_2.8 emissions_f_2.8" vType="bike" speedFactor="1.09" vaporized="">
        <emissions CO_abs="0.00" CO2_abs="0.00" HC_abs="0.00" PMx_abs="0.00" NOx_abs="0.00" fuel_abs="0.00" electricity_abs="0.00"/>
    </tripinfo>
    <tripinfo id="f4176.0" depart="196.00" departLane="C5C4_1" departPos="16.59" departSpeed="13.29" departDelay="0.00" arrival="280.00" arrivalLane="B4B5_2" arrivalPos="187.40" arrivalSpeed="12.71" duration="84.00" routeLength="547.28" waitingTime="32.00" waitingCount="1" stopTime="0.00" timeLoss="41.09" rerouteNo="1" devices="tripinfo_f4176.0 routing_f4176.0 emissions_f4176.0" vType="car" speedFactor="0.96" vaporized="">
        <emissions CO_abs="646.95" CO2_abs="178204.67" HC_abs="4.32" PMx_abs="12.79" NOx_abs="63.35" fuel_abs="57771.94" electricity_abs="0.00"/>
    </tripinfo>
    <tripinfo id="f_2.0" depart="10.00" departLane="B0B1_0" departPos="1.70" departSpeed="0.00" departDelay="0.64" arrival="282.00" arrivalLane="B4B5_0" arrivalPos="187.40" arrivalSpeed="5.93" duration="272.00" routeLength="998.30" waitingTime="82.00" waitingCount="3" stopTime="0.00" timeLoss="106.88" rerouteNo="0" devices="tripinfo_f_2.0 emissions_f_2.0" vType="bike" speedFactor="1.09" vaporized="">
        <emissions CO_abs="0.00" CO2_abs="0.00" HC_abs="0.00" PMx_abs="0.00" NOx_abs="0.00" fuel_abs="0.00" electricity_abs="0.00"/>
    </tripinfo>
    <tripinfo id="f_2.3" depart="22.00" departLane="B0B1_0" departPos="1.70" departSpeed="0.00" departDelay="1.02" arrival="282.00" arrivalLane="B4B5_1" arrivalPos="187.40" arrivalSpeed="5.08" duration="260.00" routeLength="998.30" waitingTime="57.00" waitingCount="3" stopTime="0.00" timeLoss="83.49" rerouteNo="0" devices="tripinfo_f_2.3 emissions_f_2.3" vType="bike" speedFactor="1.02" vaporized="">
        <emissions CO_abs="0.00" CO2_abs="0.00" HC_abs="0.00" PMx_abs="0.00" NOx_abs="0.00" fuel_abs="0.00" electricity_abs="0.00"/>
    </tripinfo>
    <tripinfo id="f_2.1" depart="12.00" departLane="B0B1_0" departPos="1.70" departSpeed="0.00" departDelay="0.91" arrival="284.00" arrivalLane="B4B5_0" arrivalPos="187.40" arrivalSpeed="5.66" duration="272.00" routeLength="998.30" waitingTime="70.00" waitingCount="3" stopTime="0.00" timeLoss="99.63" rerouteNo="0" devices="tripinfo_f_2.1 emissions_f_2.1" vType="bike" speedFactor="1.05" vaporized="">
        <emissions CO_abs="0.00" CO2_abs="0.00" HC_abs="0.00" PMx_abs="0.00" NOx_abs="0.00" fuel_abs="0.00" electricity_abs="0.00"/>
    </tripinfo>
    <tripinfo id="f4149.0" depart="208.00" departLane="A4B4_0" departPos="63.91" departSpeed="13.63" departDelay="0.00" arrival="285.00" arrivalLane="E4F4_0" arrivalPos="186.40" arrivalSpeed="13.21" duration="77.00" routeLength="936.09" waitingTime="0.00" waitingCount="0" stopTime="0.00" timeLoss="7.44" rerouteNo="1" devices="tripinfo_f4149.0 routing_f4149.0 emissions_f4149.0" vType="car" speedFactor="0.98" vaporized="">
        <emissions CO_abs="786.24" CO2_abs="160743.54" HC_abs="5.30" PMx_abs="21.42" NOx_abs="56.66" fuel_abs="52111.20" electricity_abs="0.00"/>
    </tripinfo>
    <tripinfo id="f_2.6" depart="35.00" departLane="B0B1_0" departPos="1.70" departSpeed="0.00" departDelay="0.63" arrival="288.00" arrivalLane="B4B5_0" arrivalPos="187.40" arrivalSpeed="5.06" duration="253.00" routeLength="998.30" waitingTime="41.00" waitingCount="3" stopTime="0.00" timeLoss="67.90" rerouteNo="0" devices="tripinfo_f_2.6 emissions_f_2.6" vType="bike" speedFactor="0.97" vaporized="">
        <emissions CO_abs="0.00" CO2_abs="0.00" HC_abs="0.00" PMx_abs="0.00" NOx_abs="0.00" fuel_abs="0.00" electricity_abs="0.00"/>
    </tripinfo>
    <tripinfo id="f4965.0" depart="212.00" departLane="F2E2_0" departPos="69.27" departSpeed="13.90" departDelay="0.00" arrival="293.00" arrivalLane="C3D3_1" arrivalPos="172.80" arrivalSpeed="11.92" duration="81.00" routeLength="880.79" waitingTime="2.00" waitingCount="1" stopTime="0.00" timeLoss="16.13" rerouteNo="1" devices="tripinfo_f4965.0 routing_f4965.0 emissions_f4965.0" vType="car" speedFactor="1.13" vaporized="">
        <emissions CO_abs="1079.25" CO2_abs="198382.66" HC_abs="7.21" PMx_abs="19.75" NOx_abs="68.51" fuel_abs="64313.06" electricity_abs="0.00"/>
    </tripinfo>
    <tripinfo id="f7932.0" depart="186.00" departLane="E3E4_1" departPos="68.53" departSpeed="13.75" departDelay="0.00" arrival="295.00" arrivalLane="B4B3_3" arrivalPos="174.80" arrivalSpeed="6.06" duration="109.00" routeLength="900.09" waitingTime="18.00" waitingCount="3" stopTime="0.00" timeLoss="42.33" rerouteNo="1" devices="tripinfo_f7932.0 routing_f7932.0 emissions_f7932.0" vType="car" speedFactor="0.99" vaporized="">
        <emissions CO_abs="895.52" CO2_abs="221991.15" HC_abs="6.00" PMx_abs="19.04" NOx_abs="77.40" fuel_abs="71966.75" electricity_abs="0.00"/>
    </tripinfo>
    <tripinfo id="f4761.0" depart="197.00" departLane="D5D4_3" departPos="57.68" departSpeed="12.71" departDelay="0.00" arrival="298.00" arrivalLane="B4B3_3" arrivalPos="174.80" arrivalSpeed="12.52" duration="101.00" routeLength="709.27" waitingTime="26.00" waitingCount="2" stopTime="0.00" timeLoss="43.05" rerouteNo="1" devices="tripinfo_f4761.0 routing_f4761.0 emissions_f4761.0" vType="car" speedFactor="0.92" vaporized="">
        <emissions CO_abs="616.93" CO2_abs="185031.44" HC_abs="4.13" PMx_abs="14.50" NOx_abs="65.52" fuel_abs="59985.04" electricity_abs="0.00"/>
    </tripinfo>
    <tripinfo id="f4920.0" depart="197.00" departLane="F3E3_1" departPos="108.12" departSpeed="13.39" departDelay="0.00" arrival="299.00" arrivalLane="C4D4_0" arrivalPos="172.80" arrivalSpeed="12.63" duration="102.00" routeLength="841.94" waitingTime="20.00" waitingCount="2" stopTime="0.00" timeLoss="37.50" rerouteNo="1" devices="tripinfo_f4920.0 routing_f4920.0 emissions_f4920.0" vType="car" speedFactor="0.96" vaporized="">