<?xml version="1.0" encoding="UTF-8"?>

<!-- generated on 2026-01-30T11:38:07.178376+01:00 by Eclipse SUMO GUI 1.25.0
<sumoConfiguration xmlns:xsi="http://www.w3.org/2001/XMLSchema-instance" xsi:noNamespaceSchemaLocation="http://sumo.dlr.de/xsd/sumoConfiguration.xsd">

    <input>
        <net-file value="ff.net.xml"/>
        <route-files value="ff_heterogeneous.rou.xml"/>
    </input>

    <output>
        <emission-output value="emissions.xml"/>
        <queue-output value="queue_normal.xml"/>
        <summary-output value="summary.xml"/>
        <tripinfo-output value="tripinfo_normal.xml"/>
    </output>

    <time>
        <begin value="0"/>
        <end value="3600"/>
    </time>

    <traci_server>
        <remote-port value="49719"/>
    </traci_server>

</sumoConfiguration>
-->

<tripinfos xmlns:xsi="http://www.w3.org/2001/XMLSchema-instance" xsi:noNamespaceSchemaLocation="http://sumo.dlr.de/xsd/tripinfo_file.xsd">
    <tripinfo id="f_4.0" depart="0.00" departLane="C5C4_0" departPos="12.10" departSpeed="0.00" departDelay="0.00" arrival="127.00" arrivalLane="C1C0_0" arrivalPos="186.40" arrivalSpeed="13.83" duration="127.00" routeLength="987.90" waitingTime="37.00" waitingCount="1" stopTime="0.00" timeLoss="55.69" rerouteNo="0" devices="tripinfo_f_4.0 emissions_f_4.0" vType="bus" speedFactor="1.00" vaporized="">
        <emissions CO_abs="313.32" CO2_abs="1339792.40" HC_abs="26.19" PMx_abs="197.46" NOx_abs="624.65" fuel_abs="430564.12" electricity_abs="0.00"/>
    </tripinfo>
    <tripinfo id="f_5.0" depart="0.00" departLane="C0C1_0" departPos="12.10" departSpeed="0.00" departDelay="0.00" arrival="127.00" arrivalLane="C4C5_0" arrivalPos="186.40" arrivalSpeed="13.30" duration="127.00" routeLength="987.90" waitingTime="38.00" waitingCount="1" stopTime="0.00" timeLoss="55.25" rerouteNo="0" devices="tripinfo_f_5.0 emissions_f_5.0" vType="bus" speedFactor="1.00" vaporized="">
        <emissions CO_abs="309.30" CO2_abs="1316946.84" HC_abs="25.77" PMx_abs="194.17" NOx_abs="614.12" fuel_abs="423222.34" electricity_abs="0.00"/>
    </tripinfo>
    <tripinfo id="f_4.1" depart="60.00" departLane="C5C4_0" departPos="12.10" departSpeed="0.00" departDelay="0.00" arrival="202.00" arrivalLane="C1C0_0" arrivalPos="186.40" arrivalSpeed="13.34" duration="142.00" routeLength="987.90" waitingTime="44.00" waitingCount="2" stopTime="0.00" timeLoss="70.30" rerouteNo="0" devices="tripinfo_f_4.1 emissions_f_4.1" vType="bus" speedFactor="1.00" vaporized="">
        <emissions CO_abs="363.41" CO2_abs="1551294.97" HC_abs="29.25" PMx_abs="216.46" NOx_abs="687.47" fuel_abs="498536.41" electricity_abs="0.00"/>
    </tripinfo>
    <tripinfo id="f_5.1" depart="60.00" departLane="C0C1_0" departPos="12.10" departSpeed="0.00" departDelay="0.00" arrival="202.00" arrivalLane="C4C5_0" arrivalPos="186.40" arrivalSpeed="13.35" duration="142.00" routeLength="987.90" waitingTime="46.00" waitingCount="2" stopTime="0.00" timeLoss="70.83" rerouteNo="0" devices="tripinfo_f_5.1 emissions_f_5.1" vType="bus" speedFactor="1.00" vaporized="">
        <emissions CO_abs="363.77" CO2_abs="1550772.51" HC_abs="29.25" PMx_abs="216.57" NOx_abs="688.04" fuel_abs="498368.58" electricity_abs="0.00"/>
    </tripinfo>
    <tripinfo id="f_0.0" depart="1.00" departLane="D5D4_0" departPos="1.70" departSpeed="0.00" departDelay="0.65" arrival="220.00" arrivalLane="D1D0_0" arrivalPos="187.40" arrivalSpeed="5.31" duration="219.00" routeLength="998.30" waitingTime="26.00" waitingCount="2" stopTime="0.00" timeLoss="49.45" rerouteNo="0" devices="tripinfo_f_0.0 emissions_f_0.0" vType="bike" speedFactor="1.06" vaporized="">
        <emissions CO_abs="0.00" CO2_abs="0.00" HC_abs="0.00" PMx_abs="0.00" NOx_abs="0.00" fuel_abs="0.00" electricity_abs="0.00"/>
    </tripinfo>
    <tripinfo id="f_1.1" depart="4.00" departLane="D0D1_0" departPos="1.70" departSpeed="0.00" departDelay="2.07" arrival="220.00" arrivalLane="D4D5_0" arrivalPos="187.40" arrivalSpeed="5.66" duration="216.00" routeLength="998.30" waitingTime="28.00" waitingCount="2" stopTime="0.00" timeLoss="49.53" rerouteNo="0" devices="tripinfo_f_1.1 emissions_f_1.1" vType="bike" speedFactor="1.08" vaporized="">
        <emissions CO_abs="0.00" CO2_abs="0.00" HC_abs="0.00" PMx_abs="0.00" NOx_abs="0.00" fuel_abs="0.00" electricity_abs="0.00"/>
    </tripinfo>
    <tripinfo id="f_3.0" depart="3.00" departLane="B5B4_0" departPos="1.70" departSpeed="0.00" departDelay="0.85" arrival="221.00" arrivalLane="B1B0_0" arrivalPos="187.40" arrivalSpeed="5.47" duration="218.00" routeLength="998.30" waitingTime="22.00" waitingCount="2" stopTime="0.00" timeLoss="43.47" rerouteNo="0" devices="tripinfo_f_3.0 emissions_f_3.0" vType="bike" speedFactor="1.03" vaporized="">
        <emissions CO_abs="0.00" CO2_abs="0.00" HC_abs="0.00" PMx_abs="0.00" NOx_abs="0.00" fuel_abs="0.00" electricity_abs="0.00"/>
    </tripinfo>
    <tripinfo id="f_1.0" depart="2.00" departLane="D0D1_0" departPos="1.70" departSpeed="0.00" departDelay="0.97" arrival="222.00" arrivalLane="D4D5_0" arrivalPos="187.40" arrivalSpeed="5.34" duration="220.00" routeLength="998.30" waitingTime="21.00" waitingCount="2" stopTime="0.00" timeLoss="41.87" rerouteNo="0" devices="tripinfo_f_1.0 emissions_f_1.0" vType="bike" speedFactor="1.01" vaporized="">
        <emissions CO_abs="0.00" CO2_abs="0.00" HC_abs="0.00" PMx_abs="0.00" NOx_abs="0.00" fuel_abs="0.00" electricity_abs="0.00"/>
    </tripinfo>
    <tripinfo id="f7091.0" depart="191.00" departLane="D2C2_0" departPos="40.90" departSpeed="13.72" departDelay="0.00" arrival="244.00" arrivalLane="C2B2_0" arrivalPos="172.80" arrivalSpeed="12.86" duration="53.00" routeLength="331.90" waitingTime="22.00" waitingCount="1" stopTime="0.00" timeLoss="27.92" rerouteNo="0" devices="tripinfo_f7091.0 routing_f7091.0 emissions_f7091.0" vType="car" speedFactor="0.99" vaporized="">
        <emissions CO_abs="341.88" CO2_abs="105798.66" HC_abs="2.29" PMx_abs="7.65" NOx_abs="38.13" fuel_abs="34298.73" electricity_abs="0.00"/>
    </tripinfo>
    <tripinfo id="f5254.0" depart="214.00" departLane="C2B2_2" departPos="101.80" departSpeed="12.04" departDelay="0.00" arrival="247.00" arrivalLane="B2A2_0" arrivalPos="186.40" arrivalSpeed="11.59" duration="33.00" routeLength="284.60" waitingTime="0.00" waitingCount="0" stopTime="0.00" timeLoss="9.36" rerouteNo="0" devices="tripinfo_f5254.0 routing_f5254.0 emissions_f5254.0" vType="car" speedFactor="0.87" vaporized="">
        <emissions CO_abs="284.07" CO2_abs="71901.76" HC_abs="1.89" PMx_abs="5.69" NOx_abs="23.99" fuel_abs="23309.49" electricity_abs="0.00"/>
    </tripinfo>
    <tripinfo id="f_1.9" depart="28.00" departLane="D0D1_0" departPos="1.70" departSpeed="0.00" departDelay="1.96" arrival="249.00" arrivalLane="D4D5_0" arrivalPos="187.40" arrivalSpeed="6.37" duration="221.00" routeLength="998.30" waitingTime="45.00" waitingCount="3" stopTime="0.00" timeLoss="68.09" rerouteNo="0" devices="tripinfo_f_1.9 emissions_f_1.9" vType="bike" speedFactor="1.18" vaporized="">
        <emissions CO_abs="0.00" CO2_abs="0.00" HC_abs="0.00" PMx_abs="0.00" NOx_abs="0.00" fuel_abs="0.00" electricity_abs="0.00"/>
    </tripinfo>
    <tripinfo id="f_3.8" depart="33.00" departLane="B5B4_0" departPos="1.70" departSpeed="0.00" departDelay="5.07" arrival="249.00" arrivalLane="B1B0_0" arrivalPos="187.40" arrivalSpeed="5.93" duration="216.00" routeLength="998.30" waitingTime="42.00" waitingCount="2" stopTime="0.00" timeLoss="62.50" rerouteNo="0" devices="tripinfo_f_3.8 emissions_f_3.8" vType="bike" speedFactor="1.17" vaporized="">
        <emissions CO_abs="0.00" CO2_abs="0.00" HC_abs="0.00" PMx_abs="0.00" NOx_abs="0.00" fuel_abs="0.00" electricity_abs="0.00"/>
    </tripinfo>
    <tripinfo id="f_2.2" depart="20.00" departLane="B0B1_0" departPos="1.70" departSpeed="0.00" departDelay="0.40" arrival="250.00" arrivalLane="B4B5_0" arrivalPos="187.40" arrivalSpeed="6.10" duration="230.00" routeLength="998.30" waitingTime="50.00" waitingCount="2" stopTime="0.00" timeLoss="74.52" rerouteNo="0" devices="tripinfo_f_2.2 emissions_f_2.2" vType="bike" speedFactor="1.16" vaporized="">
        <emissions CO_abs="0.00" CO2_abs="0.00" HC_abs="0.00" PMx_abs="0.00" NOx_abs="0.00" fuel_abs="0.00" electricity_abs="0.00"/>
    </tripinfo>
    <tripinfo id="f_1.8" depart="26.00" departLane="D0D1_0" departPos="1.70" departSpeed="0.00" departDelay="0.77" arrival="251.00" arrivalLane="D4D5_1" arrivalPos="187.40" arrivalSpeed="5.85" duration="225.00" routeLength="998.30" waitingTime="46.00" waitingCount="2" stopTime="0.00" timeLoss="66.14" rerouteNo="0" devices="tripinfo_f_1.8 emissions_f_1.8" vType="bike" speedFactor="1.13" vaporized="">
        <emissions CO_abs="0.00" CO2_abs="0.00" HC_abs="0.00" PMx_abs="0.00" NOx_abs="0.00" fuel_abs="0.00" electricity_abs="0.00"/>
    </tripinfo>
    <tripinfo id="f_1.5" depart="14.00" departLane="D0D1_0" departPos="1.70" departSpeed="0.00" departDelay="1.92" arrival="252.00" arrivalLane="D4D5_0" arrivalPos="187.40" arrivalSpeed="5.81" duration="238.00" routeLength="998.30" waitingTime="58.00" waitingCount="2" stopTime="0.00" timeLoss="77.75" rerouteNo="0" devices="tripinfo_f_1.5 emissions_f_1.5" vType="bike" speedFactor="1.12" vaporized="">
        <emissions CO_abs="0.00" CO2_abs="0.00" HC_abs="0.00" PMx_abs="0.00" NOx_abs="0.00" fuel_abs="0.00" electricity_abs="0.00"/>
    </tripinfo>
    <tripinfo id="f_2.0" depart="10.00" departLane="B0B1_0" departPos="1.70" departSpeed="0.00" departDelay="0.64" arrival="253.00" arrivalLane="B4B5_0" arrivalPos="187.40" arrivalSpeed="5.56" duration="243.00" routeLength="998.30" waitingTime="58.00" waitingCount="2" stopTime="0.00" timeLoss="77.96" rerouteNo="0" devices="tripinfo_f_2.0 emissions_f_2.0" vType="bike" speedFactor="1.09" vaporized="">
        <emissions CO_abs="0.00" CO2_abs="0.00" HC_abs="0.00" PMx_abs="0.00" NOx_abs="0.00" fuel_abs="0.00" electricity_abs="0.00"/>
    </tripinfo>
    <tripinfo id="f_3.12" depart="45.00" departLane="B5B4_0" departPos="1.70" departSpeed="0.00" departDelay="0.55" arrival="254.00" arrivalLane="B1B0_0" arrivalPos="187.40" arrivalSpeed="5.55" duration="209.00" routeLength="998.30" waitingTime="19.00" waitingCount="2" stopTime="0.00" timeLoss="44.26" rerouteNo="0" devices="tripinfo_f_3.12 emissions_f_3.12" vType="bike" speedFactor="1.10" vaporized="">
        <emissions CO_abs="0.00" CO2_abs="0.00" HC_abs="0.00" PMx_abs="0.00" NOx_abs="0.00" fuel_abs="0.00" electricity_abs="0.00"/>
    </tripinfo>
    <tripinfo id="f_1.12" depart="39.00" departLane="D0D1_0" departPos="1.70" departSpeed="0.00" departDelay="2.07" arrival="255.00" arrivalLane="D4D5_0" arrivalPos="187.40" arrivalSpeed="5.59" duration="216.00" routeLength="998.30" waitingTime="29.00" waitingCount="2" stopTime="0.00" timeLoss="52.68" rerouteNo="0" devices="tripinfo_f_1.12 emissions_f_1.12" vType="bike" speedFactor="1.10" vaporized="">
        <emissions CO_abs="0.00" CO2_abs="0.00" HC_abs="0.00" PMx_abs="0.00" NOx_abs="0.00" fuel_abs="0.00" electricity_abs="0.00"/>
    </tripinfo>
    <tripinfo id="f_2.8" depart="42.00" departLane="B0B1_0" departPos="1.70" departSpeed="0.00" departDelay="0.39" arrival="255.00" arrivalLane="B4B5_0" arrivalPos="187.40" arrivalSpeed="5.76" duration="213.00" routeLength="998.30" waitingTime="25.00" waitingCount="2" stopTime="0.00" timeLoss="47.49" rerouteNo="0" devices="tripinfo_f_2.8 emissions_f_2.8" vType="bike" speedFactor="1.09" vaporized="">
        <emissions CO_abs="0.00" CO2_abs="0.00" HC_abs="0.00" PMx_abs="0.00" NOx_abs="0.00" fuel_abs="0.00" electricity_abs="0.00"/>
    </tripinfo>
    <tripinfo id="f_2.14" depart="58.00" departLane="B0B1_0" departPos="1.70" departSpeed="0.00" departDelay="5.62" arrival="255.00" arrivalLane="B4B5_1" arrivalPos="187.40" arrivalSpeed="5.67" duration="197.00" routeLength="998.30" waitingTime="13.00" waitingCount="1" stopTime="0.00" timeLoss="35.58" rerouteNo="0" devices="tripinfo_f_2.14 emissions_f_2.14" vType="bike" speedFactor="1.12" vaporized="">
        <emissions CO_abs="0.00" CO2_abs="0.00" HC_abs="0.00" PMx_abs="0.00" NOx_abs="0.00" fuel_abs="0.00" electricity_abs="0.00"/>
    </tripinfo>
    <tripinfo id="f4176.0" depart="196.00" departLane="C5C4_1" departPos="16.59" departSpeed="13.29" departDelay="0.00" arrival="256.00" arrivalLane="B4B5_1" arrivalPos="187.40" arrivalSpeed="7.48" duration="60.00" routeLength="547.28" waitingTime="0.00" waitingCount="0" stopTime="0.00" timeLoss="17.11" rerouteNo="1" devices="tripinfo_f4176.0 routing_f4176.0 emissions_f4176.0" vType="car" speedFactor="0.96" vaporized="">
        <emissions CO_abs="551.57" CO2_abs="115920.43" HC_abs="3.67" PMx_abs="10.08" NOx_abs="38.77" fuel_abs="37579.81" electricity_abs="0.00"/>
    </tripinfo>
    <tripinfo id="f_2.1" depart="12.00" departLane="B0B1_0" departPos="1.70" departSpeed="0.00" departDelay="0.91" arrival="257.00" arrivalLane="B4B5_1" arrivalPos="187.40" arrivalSpeed="5.66" duration="245.00" routeLength="998.30" waitingTime="50.00" waitingCount="2" stopTime="0.00" timeLoss="72.68" rerouteNo="0" devices="tripinfo_f_2.1 emissions_f_2.1" vType="bike" speedFactor="1.05" vaporized="">
        <emissions CO_abs="0.00" CO2_abs="0.00" HC_abs="0.00" PMx_abs="0.00" NOx_abs="0.00" fuel_abs="0.00" electricity_abs="0.00"/>
    </tripinfo>
    <tripinfo id="f_3.2" depart="7.00" departLane="B5B4_0" departPos="1.70" departSpeed="0.00" departDelay="2.12" arrival="259.00" arrivalLane="B1B0_0" arrivalPos="187.40" arrivalSpeed="5.73" duration="252.00" routeLength="998.30" waitingTime="59.00" waitingCount="2" stopTime="0.00" timeLoss="80.12" rerouteNo="0" devices="tripinfo_f_3.2 emissions_f_3.2" vType="bike" speedFactor="1.05" vaporized="">
        <emissions CO_abs="0.00" CO2_abs="0.00" HC_abs="0.00" PMx_abs="0.00" NOx_abs="0.00" fuel_abs="0.00" electricity_abs="0.00"/>
    </tripinfo>
    <tripinfo id="f_0.2" depart="12.00" departLane="D5D4_0" departPos="1.70" departSpeed="0.00" departDelay="0.56" arrival="259.00" arrivalLane="D1D0_0" arrivalPos="187.40" arrivalSpeed="5.12" duration="247.00" routeLength="998.30" waitingTime="49.00" waitingCount="2" stopTime="0.00" timeLoss="71.32" rerouteNo="0" devices="tripinfo_f_0.2 emissions_f_0.2" vType="bike" speedFactor="1.03" vaporized="">
        <emissions CO_abs="0.00" CO2_abs="0.00" HC_abs="0.00" PMx_abs="0.00" NOx_abs="0.00" fuel_abs="0.00" electricity_abs="0.00"/>
    </tripinfo>
    <tripinfo id="f_2.3" depart="22.00" departLane="B0B1_0" departPos="1.70" departSpeed="0.00" departDelay="1.02" arrival="260.00" arrivalLane="B4B5_0" arrivalPos="187.40" arrivalSpeed="5.55" duration="238.00" routeLength="998.30" waitingTime="39.00" waitingCount="2" stopTime="0.00" timeLoss="60.77" rerouteNo="0" devices="tripinfo_f_2.3 emissions_f_2.3" vType="bike" speedFactor="1.02" vaporized="">
        <emissions CO_abs="0.00" CO2_abs="0.00" HC_abs="0.00" PMx_abs="0.00" NOx_abs="0.00" fuel_abs="0.00" electricity_abs="0.00"/>
    </tripinfo>
    <tripinfo id="f4063.0" depart="195.00" departLane="C0C1_1" departPos="44.99" departSpeed="13.90" departDelay="0.00" arrival="260.00" arrivalLane="E1E0_0" arrivalPos="186.40" arrivalSpeed="13.75" duration="65.00" routeLength="718.67" waitingTime="1.00" waitingCount="1" stopTime="0.00" timeLoss="12.06" rerouteNo="1" devices="tripinfo_f4063.0 routing_f4063.0 emissions_f4063.0" vType="car" speedFactor="1.04" vaporized="">
        <emissions CO_abs="955.81" CO2_abs="170335.06" HC_abs="6.37" PMx_abs="16.25" NOx_abs="58.56" fuel_abs="55220.24" electricity_abs="0.00"/>
    </tripinfo>
    <tripinfo id="f5357.0" depart="186.00" departLane="C3C4_2" departPos="162.27" departSpeed="7.52" departDelay="0.00" arrival="261.00" arrivalLane="E4F4_0" arrivalPos="186.40" arrivalSpeed="12.71" duration="75.00" routeLength="605.96" waitingTime="17.00" waitingCount="1" stopTime="0.00" timeLoss="28.68" rerouteNo="1" devices="tripinfo_f5357.0 routing_f5357.0 emissions_f5357.0" vType="car" speedFactor="0.97" vaporized="">
        <emissions CO_abs="642.46" CO2_abs="163640.28" HC_abs="4.30" PMx_abs="13.95" NOx_abs="57.41" fuel_abs="53050.17" electricity_abs="0.00"/>
    </tripinfo>
    <tripinfo id="f4034.0" depart="202.00" departLane="E0E1_2" departPos="77.76" departSpeed="13.45" departDelay="0.00" arrival="261.00" arrivalLane="C1C0_2" arrivalPos="186.40" arrivalSpeed="12.71" duration="59.00" routeLength="716.86" waitingTime="0.00" waitingCount="0" stopTime="0.00" timeLoss="3.70" rerouteNo="1" devices="tripinfo_f4034.0 routing_f4034.0 emissions_f4034.0" vType="car" speedFactor="0.97" vaporized="">
        <emissions CO_abs="649.67" CO2_abs="130040.19" HC_abs="4.37" PMx_abs="17.00" NOx_abs="46.07" fuel_abs="42157.57" electricity_abs="0.00"/>
    </tripinfo>
    <tripinfo id="f_1.6" depart="17.00" departLane="D0D1_0" departPos="1.70" departSpeed="0.00" departDelay="4.52" arrival="263.00" arrivalLane="D4D5_0" arrivalPos="187.40" arrivalSpeed="5.44" duration="246.00" routeLength="998.30" waitingTime="43.00" waitingCount="2" stopTime="0.00" timeLoss="64.34" rerouteNo="0" devices="tripinfo_f_1.6 emissions_f_1.6" vType="bike" speedFactor="0.99" vaporized="">
        <emissions CO_abs="0.00" CO2_abs="0.00" HC_abs="0.00" PMx_abs="0.00" NOx_abs="0.00" fuel_abs="0.00" electricity_abs="0.00"/>
    </tripinfo>
    <tripinfo id="f_3.4" depart="23.00" departLane="B5B4_0" departPos="1.70" departSpeed="0.00" departDelay="2.05" arrival="263.00" arrivalLane="B1B0_0" arrivalPos="187.40" arrivalSpeed="5.30" duration="240.00" routeLength="998.30" waitingTime="34.00" waitingCount="2" stopTime="0.00" timeLoss="54.78" rerouteNo="0" devices="tripinfo_f_3.4 emissions_f_3.4" vType="bike" speedFactor="0.97" vaporized="">
        <emissions CO_abs="0.00" CO2_abs="0.00" HC_abs="0.00" PMx_abs="0.00" NOx_abs="0.00" fuel_abs="0.00" electricity_abs="0.00"/>
    </tripinfo>
    <tripinfo id="f4146.0" depart="200.00" departLane="A4B4_1" departPos="16.03" departSpeed="13.90" departDelay="0.00" arrival="267.00" arrivalLane="C4C5_2" arrivalPos="186.40" arrivalSpeed="13.73" duration="67.00" routeLength="581.28" waitingTime="9.00" waitingCount="1" stopTime="0.00" timeLoss="23.73" rerouteNo="1" devices="tripinfo_f4146.0 routing_f4146.0 emissions_f4146.0" vType="car" speedFactor="1.02" vaporized="">
        <emissions CO_abs="710.50" CO2_abs="157640.75" HC_abs="4.74" PMx_abs="13.68" NOx_abs="54.73" fuel_abs="51105.09" electricity_abs="0.00"/>
    </tripinfo>
    <tripinfo id="f7847.0" depart="233.00" departLane="E3D3_1" departPos="162.55" departSpeed="12.58" departDelay="0.00" arrival="268.00" arrivalLane="C3B3_0" arrivalPos="172.80" arrivalSpeed="12.28" duration="35.00" routeLength="410.25" waitingTime="0.00" waitingCount="0" stopTime="0.00" timeLoss="1.50" rerouteNo="1" devices="tripinfo_f7847.0 routing_f7847.0 emissions_f7847.0" vType="car" speedFactor="0.91" vaporized="">
        <emissions CO_abs="277.88" CO2_abs="63777.38" HC_abs="1.88" PMx_abs="9.16" NOx_abs="23.03" fuel_abs="20675.99" electricity_abs="0.00"/>
    </tripinfo>
    <tripinfo id="f5653.0" depart="180.00" departLane="E1D1_2" departPos="128.43" departSpeed="13.90" departDelay="0.00" arrival="274.00" arrivalLane="B1A1_0" arrivalPos="186.40" arrivalSpeed="13.30" duration="94.00" routeLength="657.97" waitingTime="39.00" waitingCount="1" stopTime="0.00" timeLoss="46.32" rerouteNo="1" devices="tripinfo_f5653.0 routing_f5653.0 emissions_f5653.0" vType="car" speedFactor="1.02" vaporized="">
        <emissions CO_abs="590.47" CO2_abs="178632.48" HC_abs="3.98" PMx_abs="14.94" NOx_abs="65.45" fuel_abs="57910.90" electricity_abs="0.00"/>
    </tripinfo>
    <tripinfo id="f4260.0" depart="199.00" departLane="F1E1_1" departPos="173.00" departSpeed="8.95" departDelay="0.00" arrival="275.00" arrivalLane="C1C0_2" arrivalPos="186.40" arrivalSpeed="13.50" duration="76.00" routeLength="624.31" waitingTime="22.00" waitingCount="1" stopTime="0.00" timeLoss="30.40" rerouteNo="1" devices="tripinfo_f4260.0 routing_f4260.0 emissions_f4260.0" vType="car" speedFactor="1.21" vaporized="">
        <emissions CO_abs="681.01" CO2_abs="165072.33" HC_abs="4.57" PMx_abs="14.87" NOx_abs="59.22" fuel_abs="53514.55" electricity_abs="0.00"/>
    </tripinfo>
    <tripinfo id="f5419.0" depart="241.00" departLane="C4D4_1" departPos="36.58" departSpeed="13.90" departDelay="0.00" arrival="276.00" arrivalLane="D4D5_3" arrivalPos="187.40" arrivalSpeed="13.86" duration="35.00" routeLength="347.33" waitingTime="1.00" waitingCount="1" stopTime="0.00" timeLoss="9.04" rerouteNo="0" devices="tripinfo_f5419.0 routing_f5419.0 emissions_f5419.0" vType="car" speedFactor="1.12" vaporized="">
        <emissions CO_abs="395.45" CO2_abs="82219.66" HC_abs="2.64" PMx_abs="8.12" NOx_abs="28.02" fuel_abs="26654.52" electricity_abs="0.00"/>
    </tripinfo>
    <tripinfo id="f5650.0" depart="243.00" departLane="E1D1_0" departPos="82.77" departSpeed="11.30" departDelay="0.00" arrival="277.00" arrivalLane="D1D0_3" arrivalPos="187.40" arrivalSpeed="13.77" duration="34.00" routeLength="301.14" waitingTime="4.00" waitingCount="1" stopTime="0.00" timeLoss="10.85" rerouteNo="0" devices="tripinfo_f5650.0 routing_f5650.0 emissions_f5650.0" vType="car" speedFactor="1.01" vaporized="">
        <emissions CO_abs="415.19" CO2_abs="87518.97" HC_abs="2.77" PMx_abs="7.85" NOx_abs="30.15" fuel_abs="28372.52" electricity_abs="0.00"/>
    </tripinfo>
    <tripinfo id="f4260.1" depart="220.00" departLane="F1E1_2" departPos="176.11" departSpeed="7.40" departDelay="0.00" arrival="279.00" arrivalLane="C1C0_2" arrivalPos="186.40" arrivalSpeed="12.13" duration="59.00" routeLength="621.20" waitingTime="1.00" waitingCount="1" stopTime="0.00" timeLoss="10.28" rerouteNo="1" devices="tripinfo_f4260.1 routing_f4260.1 emissions_f4260.1" vType="car" speedFactor="0.93" vaporized="">
        <emissions CO_abs="659.96" CO2_abs="139982.74" HC_abs="4.41" PMx_abs="14.64" NOx_abs="48.44" fuel_abs="45380.60" electricity_abs="0.00"/>
    </tripinfo>
    <tripinfo id="f4191.0" depart="200.00" departLane="D5D4_1" departPos="38.82" departSpeed="10.53" departDelay="0.00" arrival="280.00" arrivalLane="B4B5_1" arrivalPos="187.40" arrivalSpeed="10.36" duration="80.00" routeLength="725.26" waitingTime="0.00" waitingCount="0" stopTime="0.00" timeLoss="8.52" rerouteNo="1" devices="tripinfo_f4191.0 routing_f4191.0 emissions_f4191.0" vType="car" speedFactor="0.76" vaporized="">
        <emissions CO_abs="481.38" CO2_abs="143892.50" HC_abs="3.22" PMx_abs="14.77" NOx_abs="49.14" fuel_abs="46648.27" electricity_abs="0.00"/>
    </tripinfo>
    <tripinfo id="f4761.0" depart="197.00" departLane="D5D4_3" departPos="57.68" departSpeed="12.71" departDelay="0.00" arrival="284.00" arrivalLane="B4B3_2" arrivalPos="174.80" arrivalSpeed="5.92" duration="87.00" routeLength="709.27" waitingTime="7.00" waitingCount="2" stopTime="0.00" timeLoss="29.47" rerouteNo="1" devices="tripinfo_f4761.0 routing_f4761.0 emissions_f4761.0" vType="car" speedFactor="0.92" vaporized="">
        <emissions CO_abs="631.64" CO2_abs="181961.35" HC_abs="4.23" PMx_abs="16.68" NOx_abs="62.45" fuel_abs="58989.57" electricity_abs="0.00"/>
    </tripinfo>
    <tripinfo id="f7932.0" depart="186.00" departLane="E3E4_1" departPos="68.53" departSpeed="13.75" departDelay="0.00" arrival="291.00" arrivalLane="B4B3_3" arrivalPos="174.80" arrivalSpeed="5.59" duration="105.00" routeLength="900.09" waitingTime="14.00" waitingCount="2" stopTime="0.00" timeLoss="38.08" rerouteNo="1" devices="tripinfo_f7932.0 routing_f7932.0 emissions_f7932.0" vType="car" speedFactor="0.99" vaporized="">
        <emissions CO_abs="969.87" CO2_abs="233812.97" HC_abs="6.49" PMx_abs="20.95" NOx_abs="80.60" fuel_abs="75799.17" electricity_abs="0.00"/>
    </tripinfo>
    <tripinfo id="f_4.2" depart="120.00" departLane="C5C4_0" departPos="12.10" departSpeed="0.00" departDelay="0.00" arrival="292.00" arrivalLane="C1C0_0" arrivalPos="186.40" arrivalSpeed="13.41" duration="172.00" routeLength="987.90" waitingTime="72.00" waitingCount="2" stopTime="0.00" timeLoss="100.53" rerouteNo="0" devices="tripinfo_f_4.2 emissions_f_4.2" vType="bus" speedFactor="1.00" vaporized="">
        <emissions CO_abs="429.86" CO2_abs="1638793.17" HC_abs="33.48" PMx_abs="266.25" NOx_abs="831.29" fuel_abs="526654.85" electricity_abs="0.00"/>
    </tripinfo>
    <tripinfo id="f_5.2" depart="120.00" departLane="C0C1_0" departPos="12.10" departSpeed="0.00" departDelay="0.00" arrival="292.00" arrivalLane="C4C5_0" arrivalPos="186.40" arrivalSpeed="13.44" duration="172.00" routeLength="987.90" waitingTime="72.00" waitingCount="2" stopTime="0.00" timeLoss="100.84" rerouteNo="0" devices="tripinfo_f_5.2 emissions_f_5.2" vType="bus" speedFactor="1.00" vaporized="">
        <emissions CO_abs="428.29" CO2_abs="1632768.15" HC_abs="33.35" PMx_abs="264.40" NOx_abs="826.14" fuel_abs="524718.95" electricity_abs="0.00"/>
    </tripinfo>
    <tripinfo id="f4965.0" depart="212.00" departLane="F2E2_0" departPos="69.27" departSpeed="13.90" departDelay="0.00" arrival="293.00" arrivalLane="C3D3_1" arrivalPos="172.80" arrivalSpeed="10.88" duration="81.00" routeLength="880.79" waitingTime="2.00" waitingCount="1" stopTime="0.00" timeLoss="16.23" rerouteNo="1" devices="tripinfo_f4965.0 routing_f4965.0 emissions_f4965.0" vType="car" speedFactor="1.13" vaporized="">
        <emissions CO_abs="1039.16" CO2_abs="194708.91" HC_abs="6.94" PMx_abs="19.71" NOx_abs="67.11" fuel_abs="63122.08" electricity_abs="0.00"/>
    </tripinfo>
    <tripinfo id="f4988.0" depart="232.00" departLane="F2E2_1" departPos="158.58" departSpeed="13.70" departDelay="0.00" arrival="294.00" arrivalLane="E3D3_2" arrivalPos="172.80" arrivalSpeed="13.87" duration="62.00" routeLength="406.96" waitingTime="15.00" waitingCount="2" stopTime="0.00" timeLoss="31.29" rerouteNo="1" devices="tripinfo_f4988.0 routing_f4988.0 emissions_f4988.0" vType="car" speedFactor="1.02" vaporized="">
        <emissions CO_abs="598.64" CO2_abs="147300.21" HC_abs="3.98" PMx_abs="9.06" NOx_abs="50.95" fuel_abs="47752.68" electricity_abs="0.00"/>
    </tripinfo>
    <tripinfo id="f4209.0" depart="262.00" departLane="E5E4_0" departPos="0.96" departSpeed="13.90" departDelay="0.00" arrival="295.00" arrivalLane="E4F4_2" arrivalPos="186.40" arrivalSpeed="13.16" duration="33.00" routeLength="396.35" waitingTime="0.00" waitingCount="0" stopTime="0.00" timeLoss="3.18" rerouteNo="0" devices="tripinfo_f4209.0 routing_f4209.0 emissions_f4209.0" vType="car" speedFactor="1.04" vaporized="">
        <emissions CO_abs="411.97" CO2_abs="75820.83" HC_abs="2.76" PMx_abs="9.12" NOx_abs="26.47" fuel_abs="24580.18" electricity_abs="0.00"/>
    </tripinfo>
    <tripinfo id="f5253.0" depart="194.00" departLane="C2B2_2" departPos="38.56" departSpeed="10.45" departDelay="0.00" arrival="298.00" arrivalLane="B1A1_0" arrivalPos="186.40" arrivalSpeed="10.24" duration="104.00" routeLength="527.39" waitingTime="37.00" waitingCount="3" stopTime="0.00" timeLoss="51.61" rerouteNo="1" devices="tripinfo_f5253.0 routing_f5253.0 emissions_f5253.0" vType="car" speedFactor="0.75" vaporized="">
        <emissions CO_abs="394.05" CO2_abs="184290.36" HC_abs="2.63" PMx_abs="10.49" NOx_abs="65.27" fuel_abs="59744.90" electricity_abs="0.00"/>
    </tripinfo>
    <tripinfo id="f4242.0" depart="196.00" departLane="F3E3_2" departPos="133.38" departSpeed="13.90" departDelay="0.00" arrival="305.00" arrivalLane="E1F1_2" arrivalPos="186.40" arrivalSpeed="13.11" duration="109.00" routeLength="661.24" waitingTime="47.00" waitingCount="2" stopTime="0.00" timeLoss="60.41" rerouteNo="1" devices="tripinfo_f4242.0 routing_f4242.0 emissions_f4242.0" vType="car" speedFactor="1.13" vaporized="">
        <emissions CO_abs="883.14" CO2_abs="235619.84" HC_abs="5.89" PMx_abs="15.01" NOx_abs="83.94" fuel_abs="76385.15" electricity_abs="0.00"/>
    </tripinfo>
    <tripinfo id="f_1.10" depart="31.00" departLane="D0D1_0" departPos="1.70" departSpeed="0.00" departDelay="4.82" arrival="307.00" arrivalLane="D4D5_0" arrivalPos="187.40" arrivalSpeed="6.30" duration="276.00" routeLength="998.30" waitingTime="83.00" waitingCount="3" stopTime="0.00" timeLoss="119.56" rerouteNo="0" devices="tripinfo_f_1.10 emissions_f_1.10" vType="bike" speedFactor="1.15" vaporized="">
        <emissions CO_abs="0.00" CO2_abs="0.00" HC_abs="0.00" PMx_abs="0.00" NOx_abs="0.00" fuel_abs="0.00" electricity_abs="0.00"/>
    </tripinfo>
    <tripinfo id="f_1.11" depart="37.00" departLane="D0D1_0" departPos="1.70" departSpeed="0.00" departDelay="0.18" arrival="307.00" arrivalLane="D4D5_1" arrivalPos="187.40" arrivalSpeed="6.25" duration="270.00" routeLength="998.30" waitingTime="76.00" waitingCount="3" stopTime="0.00" timeLoss="117.28" rerouteNo="0" devices="tripinfo_f_1.11 emissions_f_1.11" vType="bike" speedFactor="1.18" vaporized="">
        <emissions CO_abs="0.00" CO2_abs="0.00" HC_abs="0.00" PMx_abs="0.00" NOx_abs="0.00" fuel_abs="0.00" electricity_abs="0.00"/>
    </tripinfo>
    <tripinfo id="f_0.14" depart="52.00" departLane="D5D4_0" departPos="1.70" departSpeed="0.00" departDelay="3.65" arrival="307.00" arrivalLane="D1D0_0" arrivalPos="187.40" arrivalSpeed="6.04" duration="255.00" routeLength="998.30" waitingTime="66.00" waitingCount="3" stopTime="0.00" timeLoss="97.51" rerouteNo="0" devices="tripinfo_f_0.14 emissions_f_0.14" vType="bike" speedFactor="1.14" vaporized="">
        <emissions CO_abs="0.00" CO2_abs="0.00" HC_abs="0.00" PMx_abs="0.00" NOx_abs="0.00" fuel_abs="0.00" electricity_abs="0.00"/>
    </tripinfo>