<?xml version="1.0" encoding="UTF-8"?>

<!-- generated on 2026-01-30T02:09:08.454915+01:00 by Eclipse SUMO sumo 1.25.0
<sumoConfiguration xmlns:xsi="http://www.w3.org/2001/XMLSchema-instance" xsi:noNamespaceSchemaLocation="http://sumo.dlr.de/xsd/sumoConfiguration.xsd">

    <input>
        <net-file value="ff.net.xml"/>
        <route-files value="ff_heterogeneous.rou.xml"/>
    </input>

    <output>
        <emission-output value="emissions.xml"/>
        <queue-output value="queue.xml"/>
        <summary-output value="summary.xml"/>
        <tripinfo-output value="tripinfo.xml"/>
    </output>

    <time>
        <begin value="0"/>
        <end value="3600"/>
    </time>

    <traci_server>
        <remote-port value="55502"/>
    </traci_server>

</sumoConfiguration>
-->

<tripinfos xmlns:xsi="http://www.w3.org/2001/XMLSchema-instance" xsi:noNamespaceSchemaLocation="http://sumo.dlr.de/xsd/tripinfo_file.xsd">
    <tripinfo id="f_4.0" depart="0.00" departLane="C5C4_0" departPos="12.10" departSpeed="0.00" departDelay="0.00" arrival="127.00" arrivalLane="C1C0_0" arrivalPos="186.40" arrivalSpeed="13.83" duration="127.00" routeLength="987.90" waitingTime="37.00" waitingCount="1" stopTime="0.00" timeLoss="55.69" rerouteNo="0" devices="tripinfo_f_4.0 emissions_f_4.0" vType="t_0" speedFactor="1.00" vaporized="">
        <emissions CO_abs="313.32" CO2_abs="1339792.40" HC_abs="26.19" PMx_abs="197.46" NOx_abs="624.65" fuel_abs="430564.12" electricity_abs="0.00"/>
    </tripinfo>
    <tripinfo id="f_5.0" depart="0.00" departLane="C0C1_0" departPos="12.10" departSpeed="0.00" departDelay="0.00" arrival="127.00" arrivalLane="C4C5_0" arrivalPos="186.40" arrivalSpeed="13.30" duration="127.00" routeLength="987.90" waitingTime="38.00" waitingCount="1" stopTime="0.00" timeLoss="55.25" rerouteNo="0" devices="tripinfo_f_5.0 emissions_f_5.0" vType="t_0" speedFactor="1.00" vaporized="">
        <emissions CO_abs="309.30" CO2_abs="1316946.84" HC_abs="25.77" PMx_abs="194.17" NOx_abs="614.12" fuel_abs="423222.34" electricity_abs="0.00"/>
    </tripinfo>
    <tripinfo id="f_4.1" depart="60.00" departLane="C5C4_0" departPos="12.10" departSpeed="0.00" departDelay="0.00" arrival="202.00" arrivalLane="C1C0_0" arrivalPos="186.40" arrivalSpeed="13.34" duration="142.00" routeLength="987.90" waitingTime="44.00" waitingCount="2" stopTime="0.00" timeLoss="70.30" rerouteNo="0" devices="tripinfo_f_4.1 emissions_f_4.1" vType="t_0" speedFactor="1.00" vaporized="">
        <emissions CO_abs="363.41" CO2_abs="1551294.97" HC_abs="29.25" PMx_abs="216.46" NOx_abs="687.47" fuel_abs="498536.41" electricity_abs="0.00"/>
    </tripinfo>
    <tripinfo id="f_5.1" depart="60.00" departLane="C0C1_0" departPos="12.10" departSpeed="0.00" departDelay="0.00" arrival="202.00" arrivalLane="C4C5_0" arrivalPos="186.40" arrivalSpeed="13.35" duration="142.00" routeLength="987.90" waitingTime="46.00" waitingCount="2" stopTime="0.00" timeLoss="70.83" rerouteNo="0" devices="tripinfo_f_5.1 emissions_f_5.1" vType="t_0" speedFactor="1.00" vaporized="">
        <emissions CO_abs="363.77" CO2_abs="1550772.51" HC_abs="29.25" PMx_abs="216.57" NOx_abs="688.04" fuel_abs="498368.58" electricity_abs="0.00"/>
    </tripinfo>
    <tripinfo id="f_0.0" depart="1.00" departLane="D5D4_0" departPos="1.70" departSpeed="0.00" departDelay="0.65" arrival="220.00" arrivalLane="D1D0_0" arrivalPos="187.40" arrivalSpeed="5.31" duration="219.00" routeLength="998.30" waitingTime="26.00" waitingCount="2" stopTime="0.00" timeLoss="49.45" rerouteNo="0" devices="tripinfo_f_0.0 emissions_f_0.0" vType="DEFAULT_BIKETYPE" speedFactor="1.06" vaporized="">
        <emissions CO_abs="0.00" CO2_abs="0.00" HC_abs="0.00" PMx_abs="0.00" NOx_abs="0.00" fuel_abs="0.00" electricity_abs="0.00"/>
    </tripinfo>
    <tripinfo id="f_1.1" depart="4.00" departLane="D0D1_0" departPos="1.70" departSpeed="0.00" departDelay="2.07" arrival="220.00" arrivalLane="D4D5_0" arrivalPos="187.40" arrivalSpeed="5.66" duration="216.00" routeLength="998.30" waitingTime="28.00" waitingCount="2" stopTime="0.00" timeLoss="49.53" rerouteNo="0" devices="tripinfo_f_1.1 emissions_f_1.1" vType="DEFAULT_BIKETYPE" speedFactor="1.08" vaporized="">
        <emissions CO_abs="0.00" CO2_abs="0.00" HC_abs="0.00" PMx_abs="0.00" NOx_abs="0.00" fuel_abs="0.00" electricity_abs="0.00"/>
    </tripinfo>
    <tripinfo id="f_3.0" depart="3.00" departLane="B5B4_0" departPos="1.70" departSpeed="0.00" departDelay="0.85" arrival="221.00" arrivalLane="B1B0_0" arrivalPos="187.40" arrivalSpeed="5.47" duration="218.00" routeLength="998.30" waitingTime="22.00" waitingCount="2" stopTime="0.00" timeLoss="43.47" rerouteNo="0" devices="tripinfo_f_3.0 emissions_f_3.0" vType="DEFAULT_BIKETYPE" speedFactor="1.03" vaporized="">
        <emissions CO_abs="0.00" CO2_abs="0.00" HC_abs="0.00" PMx_abs="0.00" NOx_abs="0.00" fuel_abs="0.00" electricity_abs="0.00"/>
    </tripinfo>
    <tripinfo id="f_1.0" depart="2.00" departLane="D0D1_0" departPos="1.70" departSpeed="0.00" departDelay="0.97" arrival="222.00" arrivalLane="D4D5_0" arrivalPos="187.40" arrivalSpeed="5.34" duration="220.00" routeLength="998.30" waitingTime="21.00" waitingCount="2" stopTime="0.00" timeLoss="41.87" rerouteNo="0" devices="tripinfo_f_1.0 emissions_f_1.0" vType="DEFAULT_BIKETYPE" speedFactor="1.01" vaporized="">
        <emissions CO_abs="0.00" CO2_abs="0.00" HC_abs="0.00" PMx_abs="0.00" NOx_abs="0.00" fuel_abs="0.00" electricity_abs="0.00"/>
    </tripinfo>
    <tripinfo id="f7091.0" depart="191.00" departLane="D2C2_0" departPos="40.90" departSpeed="13.72" departDelay="0.00" arrival="243.00" arrivalLane="C2B2_0" arrivalPos="172.80" arrivalSpeed="13.62" duration="52.00" routeLength="331.90" waitingTime="22.00" waitingCount="1" stopTime="0.00" timeLoss="27.70" rerouteNo="0" devices="tripinfo_f7091.0 routing_f7091.0 emissions_f7091.0" vType="car" speedFactor="0.99" vaporized="">
        <emissions CO_abs="381.97" CO2_abs="105150.02" HC_abs="2.55" PMx_abs="6.71" NOx_abs="37.82" fuel_abs="34088.38" electricity_abs="0.00"/>
    </tripinfo>
    <tripinfo id="f5254.0" depart="214.00" departLane="C2B2_2" departPos="101.80" departSpeed="12.04" departDelay="0.00" arrival="248.00" arrivalLane="B2A2_0" arrivalPos="186.40" arrivalSpeed="11.77" duration="34.00" routeLength="284.60" waitingTime="0.00" waitingCount="0" stopTime="0.00" timeLoss="9.47" rerouteNo="0" devices="tripinfo_f5254.0 routing_f5254.0 emissions_f5254.0" vType="car" speedFactor="0.87" vaporized="">
        <emissions CO_abs="277.37" CO2_abs="73693.85" HC_abs="1.85" PMx_abs="6.27" NOx_abs="24.79" fuel_abs="23890.51" electricity_abs="0.00"/>
    </tripinfo>
    <tripinfo id="f_1.9" depart="28.00" departLane="D0D1_0" departPos="1.70" departSpeed="0.00" departDelay="1.96" arrival="249.00" arrivalLane="D4D5_0" arrivalPos="187.40" arrivalSpeed="6.41" duration="221.00" routeLength="998.30" waitingTime="45.00" waitingCount="3" stopTime="0.00" timeLoss="67.94" rerouteNo="0" devices="tripinfo_f_1.9 emissions_f_1.9" vType="DEFAULT_BIKETYPE" speedFactor="1.18" vaporized="">
        <emissions CO_abs="0.00" CO2_abs="0.00" HC_abs="0.00" PMx_abs="0.00" NOx_abs="0.00" fuel_abs="0.00" electricity_abs="0.00"/>
    </tripinfo>
    <tripinfo id="f_3.8" depart="33.00" departLane="B5B4_0" departPos="1.70" departSpeed="0.00" departDelay="5.07" arrival="249.00" arrivalLane="B1B0_0" arrivalPos="187.40" arrivalSpeed="6.23" duration="216.00" routeLength="998.30" waitingTime="42.00" waitingCount="2" stopTime="0.00" timeLoss="62.42" rerouteNo="0" devices="tripinfo_f_3.8 emissions_f_3.8" vType="DEFAULT_BIKETYPE" speedFactor="1.17" vaporized="">
        <emissions CO_abs="0.00" CO2_abs="0.00" HC_abs="0.00" PMx_abs="0.00" NOx_abs="0.00" fuel_abs="0.00" electricity_abs="0.00"/>
    </tripinfo>
    <tripinfo id="f_2.2" depart="20.00" departLane="B0B1_0" departPos="1.70" departSpeed="0.00" departDelay="0.40" arrival="250.00" arrivalLane="B4B5_0" arrivalPos="187.40" arrivalSpeed="6.34" duration="230.00" routeLength="998.30" waitingTime="50.00" waitingCount="2" stopTime="0.00" timeLoss="74.49" rerouteNo="0" devices="tripinfo_f_2.2 emissions_f_2.2" vType="DEFAULT_BIKETYPE" speedFactor="1.16" vaporized="">
        <emissions CO_abs="0.00" CO2_abs="0.00" HC_abs="0.00" PMx_abs="0.00" NOx_abs="0.00" fuel_abs="0.00" electricity_abs="0.00"/>
    </tripinfo>
    <tripinfo id="f_1.5" depart="14.00" departLane="D0D1_0" departPos="1.70" departSpeed="0.00" departDelay="1.92" arrival="252.00" arrivalLane="D4D5_0" arrivalPos="187.40" arrivalSpeed="5.67" duration="238.00" routeLength="998.30" waitingTime="58.00" waitingCount="2" stopTime="0.00" timeLoss="77.89" rerouteNo="0" devices="tripinfo_f_1.5 emissions_f_1.5" vType="DEFAULT_BIKETYPE" speedFactor="1.12" vaporized="">
        <emissions CO_abs="0.00" CO2_abs="0.00" HC_abs="0.00" PMx_abs="0.00" NOx_abs="0.00" fuel_abs="0.00" electricity_abs="0.00"/>
    </tripinfo>
    <tripinfo id="f_1.8" depart="26.00" departLane="D0D1_0" departPos="1.70" departSpeed="0.00" departDelay="0.77" arrival="252.00" arrivalLane="D4D5_1" arrivalPos="187.40" arrivalSpeed="6.24" duration="226.00" routeLength="998.30" waitingTime="46.00" waitingCount="2" stopTime="0.00" timeLoss="66.35" rerouteNo="0" devices="tripinfo_f_1.8 emissions_f_1.8" vType="DEFAULT_BIKETYPE" speedFactor="1.13" vaporized="">
        <emissions CO_abs="0.00" CO2_abs="0.00" HC_abs="0.00" PMx_abs="0.00" NOx_abs="0.00" fuel_abs="0.00" electricity_abs="0.00"/>
    </tripinfo>
    <tripinfo id="f_2.0" depart="10.00" departLane="B0B1_0" departPos="1.70" departSpeed="0.00" departDelay="0.64" arrival="254.00" arrivalLane="B4B5_0" arrivalPos="187.40" arrivalSpeed="5.60" duration="244.00" routeLength="998.30" waitingTime="58.00" waitingCount="2" stopTime="0.00" timeLoss="78.37" rerouteNo="0" devices="tripinfo_f_2.0 emissions_f_2.0" vType="DEFAULT_BIKETYPE" speedFactor="1.09" vaporized="">
        <emissions CO_abs="0.00" CO2_abs="0.00" HC_abs="0.00" PMx_abs="0.00" NOx_abs="0.00" fuel_abs="0.00" electricity_abs="0.00"/>
    </tripinfo>
    <tripinfo id="f_3.12" depart="45.00" departLane="B5B4_0" departPos="1.70" departSpeed="0.00" departDelay="0.55" arrival="254.00" arrivalLane="B1B0_0" arrivalPos="187.40" arrivalSpeed="6.04" duration="209.00" routeLength="998.30" waitingTime="19.00" waitingCount="2" stopTime="0.00" timeLoss="44.36" rerouteNo="0" devices="tripinfo_f_3.12 emissions_f_3.12" vType="DEFAULT_BIKETYPE" speedFactor="1.10" vaporized="">
        <emissions CO_abs="0.00" CO2_abs="0.00" HC_abs="0.00" PMx_abs="0.00" NOx_abs="0.00" fuel_abs="0.00" electricity_abs="0.00"/>
    </tripinfo>
    <tripinfo id="f_1.12" depart="39.00" departLane="D0D1_0" departPos="1.70" departSpeed="0.00" departDelay="2.07" arrival="255.00" arrivalLane="D4D5_0" arrivalPos="187.40" arrivalSpeed="5.68" duration="216.00" routeLength="998.30" waitingTime="29.00" waitingCount="2" stopTime="0.00" timeLoss="52.91" rerouteNo="0" devices="tripinfo_f_1.12 emissions_f_1.12" vType="DEFAULT_BIKETYPE" speedFactor="1.10" vaporized="">
        <emissions CO_abs="0.00" CO2_abs="0.00" HC_abs="0.00" PMx_abs="0.00" NOx_abs="0.00" fuel_abs="0.00" electricity_abs="0.00"/>
    </tripinfo>
    <tripinfo id="f_2.8" depart="42.00" departLane="B0B1_0" departPos="1.70" departSpeed="0.00" departDelay="0.39" arrival="255.00" arrivalLane="B4B5_0" arrivalPos="187.40" arrivalSpeed="5.99" duration="213.00" routeLength="998.30" waitingTime="25.00" waitingCount="2" stopTime="0.00" timeLoss="47.57" rerouteNo="0" devices="tripinfo_f_2.8 emissions_f_2.8" vType="DEFAULT_BIKETYPE" speedFactor="1.09" vaporized="">
        <emissions CO_abs="0.00" CO2_abs="0.00" HC_abs="0.00" PMx_abs="0.00" NOx_abs="0.00" fuel_abs="0.00" electricity_abs="0.00"/>
    </tripinfo>
    <tripinfo id="f_2.14" depart="58.00" departLane="B0B1_0" departPos="1.70" departSpeed="0.00" departDelay="5.62" arrival="255.00" arrivalLane="B4B5_1" arrivalPos="187.40" arrivalSpeed="5.62" duration="197.00" routeLength="998.30" waitingTime="13.00" waitingCount="1" stopTime="0.00" timeLoss="35.59" rerouteNo="0" devices="tripinfo_f_2.14 emissions_f_2.14" vType="DEFAULT_BIKETYPE" speedFactor="1.12" vaporized="">
        <emissions CO_abs="0.00" CO2_abs="0.00" HC_abs="0.00" PMx_abs="0.00" NOx_abs="0.00" fuel_abs="0.00" electricity_abs="0.00"/>
    </tripinfo>
    <tripinfo id="f4176.0" depart="196.00" departLane="C5C4_1" departPos="16.59" departSpeed="13.29" departDelay="0.00" arrival="256.00" arrivalLane="B4B5_1" arrivalPos="187.40" arrivalSpeed="7.56" duration="60.00" routeLength="547.28" waitingTime="0.00" waitingCount="0" stopTime="0.00" timeLoss="16.61" rerouteNo="1" devices="tripinfo_f4176.0 routing_f4176.0 emissions_f4176.0" vType="car" speedFactor="0.96" vaporized="">
        <emissions CO_abs="501.58" CO2_abs="114791.02" HC_abs="3.35" PMx_abs="10.82" NOx_abs="39.04" fuel_abs="37213.78" electricity_abs="0.00"/>
    </tripinfo>
    <tripinfo id="f_2.1" depart="12.00" departLane="B0B1_0" departPos="1.70" departSpeed="0.00" departDelay="0.91" arrival="257.00" arrivalLane="B4B5_1" arrivalPos="187.40" arrivalSpeed="5.64" duration="245.00" routeLength="998.30" waitingTime="50.00" waitingCount="2" stopTime="0.00" timeLoss="72.91" rerouteNo="0" devices="tripinfo_f_2.1 emissions_f_2.1" vType="DEFAULT_BIKETYPE" speedFactor="1.05" vaporized="">
        <emissions CO_abs="0.00" CO2_abs="0.00" HC_abs="0.00" PMx_abs="0.00" NOx_abs="0.00" fuel_abs="0.00" electricity_abs="0.00"/>
    </tripinfo>
    <tripinfo id="f_0.2" depart="12.00" departLane="D5D4_0" departPos="1.70" departSpeed="0.00" departDelay="0.56" arrival="259.00" arrivalLane="D1D0_0" arrivalPos="187.40" arrivalSpeed="5.42" duration="247.00" routeLength="998.30" waitingTime="49.00" waitingCount="2" stopTime="0.00" timeLoss="71.14" rerouteNo="0" devices="tripinfo_f_0.2 emissions_f_0.2" vType="DEFAULT_BIKETYPE" speedFactor="1.03" vaporized="">
        <emissions CO_abs="0.00" CO2_abs="0.00" HC_abs="0.00" PMx_abs="0.00" NOx_abs="0.00" fuel_abs="0.00" electricity_abs="0.00"/>
    </tripinfo>
    <tripinfo id="f_2.3" depart="22.00" departLane="B0B1_0" departPos="1.70" departSpeed="0.00" departDelay="1.02" arrival="259.00" arrivalLane="B4B5_0" arrivalPos="187.40" arrivalSpeed="5.26" duration="237.00" routeLength="998.30" waitingTime="39.00" waitingCount="2" stopTime="0.00" timeLoss="60.22" rerouteNo="0" devices="tripinfo_f_2.3 emissions_f_2.3" vType="DEFAULT_BIKETYPE" speedFactor="1.02" vaporized="">
        <emissions CO_abs="0.00" CO2_abs="0.00" HC_abs="0.00" PMx_abs="0.00" NOx_abs="0.00" fuel_abs="0.00" electricity_abs="0.00"/>
    </tripinfo>
    <tripinfo id="f_3.2" depart="7.00" departLane="B5B4_0" departPos="1.70" departSpeed="0.00" departDelay="2.12" arrival="260.00" arrivalLane="B1B0_0" arrivalPos="187.40" arrivalSpeed="5.28" duration="253.00" routeLength="998.30" waitingTime="59.00" waitingCount="2" stopTime="0.00" timeLoss="80.29" rerouteNo="0" devices="tripinfo_f_3.2 emissions_f_3.2" vType="DEFAULT_BIKETYPE" speedFactor="1.05" vaporized="">
        <emissions CO_abs="0.00" CO2_abs="0.00" HC_abs="0.00" PMx_abs="0.00" NOx_abs="0.00" fuel_abs="0.00" electricity_abs="0.00"/>
    </tripinfo>
    <tripinfo id="f4063.0" depart="195.00" departLane="C0C1_1" departPos="44.99" departSpeed="13.90" departDelay="0.00" arrival="260.00" arrivalLane="E1E0_0" arrivalPos="186.40" arrivalSpeed="13.78" duration="65.00" routeLength="718.67" waitingTime="0.00" waitingCount="0" stopTime="0.00" timeLoss="11.90" rerouteNo="1" devices="tripinfo_f4063.0 routing_f4063.0 emissions_f4063.0" vType="car" speedFactor="1.04" vaporized="">
        <emissions CO_abs="926.09" CO2_abs="165370.34" HC_abs="6.18" PMx_abs="16.13" NOx_abs="56.36" fuel_abs="53610.79" electricity_abs="0.00"/>
    </tripinfo>
    <tripinfo id="f4034.0" depart="202.00" departLane="E0E1_2" departPos="77.76" departSpeed="13.45" departDelay="0.00" arrival="261.00" arrivalLane="C1C0_2" arrivalPos="186.40" arrivalSpeed="12.74" duration="59.00" routeLength="716.86" waitingTime="0.00" waitingCount="0" stopTime="0.00" timeLoss="3.61" rerouteNo="1" devices="tripinfo_f4034.0 routing_f4034.0 emissions_f4034.0" vType="car" speedFactor="0.97" vaporized="">
        <emissions CO_abs="695.95" CO2_abs="128810.85" HC_abs="4.67" PMx_abs="15.73" NOx_abs="45.51" fuel_abs="41758.95" electricity_abs="0.00"/>
    </tripinfo>
    <tripinfo id="f_3.4" depart="23.00" departLane="B5B4_0" departPos="1.70" departSpeed="0.00" departDelay="2.05" arrival="262.00" arrivalLane="B1B0_0" arrivalPos="187.40" arrivalSpeed="5.36" duration="239.00" routeLength="998.30" waitingTime="34.00" waitingCount="2" stopTime="0.00" timeLoss="54.40" rerouteNo="0" devices="tripinfo_f_3.4 emissions_f_3.4" vType="DEFAULT_BIKETYPE" speedFactor="0.97" vaporized="">
        <emissions CO_abs="0.00" CO2_abs="0.00" HC_abs="0.00" PMx_abs="0.00" NOx_abs="0.00" fuel_abs="0.00" electricity_abs="0.00"/>
    </tripinfo>
    <tripinfo id="f_1.6" depart="17.00" departLane="D0D1_0" departPos="1.70" departSpeed="0.00" departDelay="4.52" arrival="263.00" arrivalLane="D4D5_0" arrivalPos="187.40" arrivalSpeed="4.94" duration="246.00" routeLength="998.30" waitingTime="43.00" waitingCount="2" stopTime="0.00" timeLoss="64.20" rerouteNo="0" devices="tripinfo_f_1.6 emissions_f_1.6" vType="DEFAULT_BIKETYPE" speedFactor="0.99" vaporized="">
        <emissions CO_abs="0.00" CO2_abs="0.00" HC_abs="0.00" PMx_abs="0.00" NOx_abs="0.00" fuel_abs="0.00" electricity_abs="0.00"/>
    </tripinfo>
    <tripinfo id="f4146.0" depart="200.00" departLane="A4B4_1" departPos="16.03" departSpeed="13.90" departDelay="0.00" arrival="268.00" arrivalLane="C4C5_2" arrivalPos="186.40" arrivalSpeed="13.77" duration="68.00" routeLength="581.28" waitingTime="11.00" waitingCount="2" stopTime="0.00" timeLoss="24.77" rerouteNo="1" devices="tripinfo_f4146.0 routing_f4146.0 emissions_f4146.0" vType="car" speedFactor="1.02" vaporized="">
        <emissions CO_abs="697.49" CO2_abs="158067.48" HC_abs="4.66" PMx_abs="13.66" NOx_abs="54.43" fuel_abs="51243.36" electricity_abs="0.00"/>
    </tripinfo>
    <tripinfo id="f7847.0" depart="233.00" departLane="E3D3_1" departPos="162.55" departSpeed="12.58" departDelay="0.00" arrival="268.00" arrivalLane="C3B3_0" arrivalPos="172.80" arrivalSpeed="12.53" duration="35.00" routeLength="410.25" waitingTime="0.00" waitingCount="0" stopTime="0.00" timeLoss="1.47" rerouteNo="1" devices="tripinfo_f7847.0 routing_f7847.0 emissions_f7847.0" vType="car" speedFactor="0.91" vaporized="">
        <emissions CO_abs="254.55" CO2_abs="62619.44" HC_abs="1.73" PMx_abs="9.42" NOx_abs="22.73" fuel_abs="20300.63" electricity_abs="0.00"/>
    </tripinfo>
    <tripinfo id="f5419.0" depart="241.00" departLane="C4D4_1" departPos="36.58" departSpeed="13.90" departDelay="0.00" arrival="269.00" arrivalLane="D4D5_3" arrivalPos="187.40" arrivalSpeed="12.94" duration="28.00" routeLength="347.33" waitingTime="0.00" waitingCount="0" stopTime="0.00" timeLoss="2.00" rerouteNo="0" devices="tripinfo_f5419.0 routing_f5419.0 emissions_f5419.0" vType="car" speedFactor="1.12" vaporized="">
        <emissions CO_abs="368.29" CO2_abs="61402.62" HC_abs="2.46" PMx_abs="7.10" NOx_abs="21.61" fuel_abs="19905.96" electricity_abs="0.00"/>
    </tripinfo>
    <tripinfo id="f5357.0" depart="186.00" departLane="C3C4_2" departPos="162.27" departSpeed="7.52" departDelay="0.00" arrival="270.00" arrivalLane="E4F4_1" arrivalPos="186.40" arrivalSpeed="13.26" duration="84.00" routeLength="605.96" waitingTime="19.00" waitingCount="2" stopTime="0.00" timeLoss="38.15" rerouteNo="1" devices="tripinfo_f5357.0 routing_f5357.0 emissions_f5357.0" vType="car" speedFactor="0.97" vaporized="">
        <emissions CO_abs="827.78" CO2_abs="203902.31" HC_abs="5.50" PMx_abs="14.28" NOx_abs="69.81" fuel_abs="66102.44" electricity_abs="0.00"/>
    </tripinfo>
    <tripinfo id="f5653.0" depart="180.00" departLane="E1D1_2" departPos="128.43" departSpeed="13.90" departDelay="0.00" arrival="275.00" arrivalLane="B1A1_0" arrivalPos="186.40" arrivalSpeed="13.87" duration="95.00" routeLength="657.97" waitingTime="39.00" waitingCount="1" stopTime="0.00" timeLoss="46.81" rerouteNo="1" devices="tripinfo_f5653.0 routing_f5653.0 emissions_f5653.0" vType="car" speedFactor="1.02" vaporized="">
        <emissions CO_abs="653.64" CO2_abs="184794.68" HC_abs="4.40" PMx_abs="14.91" NOx_abs="67.61" fuel_abs="59908.56" electricity_abs="0.00"/>
    </tripinfo>
    <tripinfo id="f4260.0" depart="199.00" departLane="F1E1_1" departPos="173.00" departSpeed="8.95" departDelay="0.00" arrival="276.00" arrivalLane="C1C0_2" arrivalPos="186.40" arrivalSpeed="13.18" duration="77.00" routeLength="624.31" waitingTime="22.00" waitingCount="1" stopTime="0.00" timeLoss="31.01" rerouteNo="1" devices="tripinfo_f4260.0 routing_f4260.0 emissions_f4260.0" vType="car" speedFactor="1.21" vaporized="">
        <emissions CO_abs="765.52" CO2_abs="168669.96" HC_abs="5.11" PMx_abs="13.79" NOx_abs="60.39" fuel_abs="54680.76" electricity_abs="0.00"/>
    </tripinfo>
    <tripinfo id="f5650.0" depart="243.00" departLane="E1D1_0" departPos="82.77" departSpeed="10.97" departDelay="0.00" arrival="276.00" arrivalLane="D1D0_3" arrivalPos="187.40" arrivalSpeed="13.22" duration="33.00" routeLength="301.14" waitingTime="4.00" waitingCount="1" stopTime="0.00" timeLoss="9.90" rerouteNo="0" devices="tripinfo_f5650.0 routing_f5650.0 emissions_f5650.0" vType="car" speedFactor="1.01" vaporized="">
        <emissions CO_abs="399.90" CO2_abs="86021.17" HC_abs="2.68" PMx_abs="8.12" NOx_abs="29.60" fuel_abs="27886.96" electricity_abs="0.00"/>
    </tripinfo>
    <tripinfo id="f4050.0" depart="215.00" departLane="D0D1_2" departPos="111.07" departSpeed="12.14" departDelay="1.00" arrival="277.00" arrivalLane="B1B0_3" arrivalPos="187.40" arrivalSpeed="11.16" duration="62.00" routeLength="683.95" waitingTime="0.00" waitingCount="0" stopTime="0.00" timeLoss="4.31" rerouteNo="1" devices="tripinfo_f4050.0 routing_f4050.0 emissions_f4050.0" vType="car" speedFactor="0.87" vaporized="">
        <emissions CO_abs="529.20" CO2_abs="124604.99" HC_abs="3.55" PMx_abs="15.14" NOx_abs="43.66" fuel_abs="40395.55" electricity_abs="0.00"/>
    </tripinfo>
    <tripinfo id="f4191.0" depart="200.00" departLane="D5D4_1" departPos="38.82" departSpeed="10.53" departDelay="0.00" arrival="279.00" arrivalLane="B4B5_1" arrivalPos="187.40" arrivalSpeed="9.86" duration="79.00" routeLength="725.26" waitingTime="0.00" waitingCount="0" stopTime="0.00" timeLoss="7.96" rerouteNo="1" devices="tripinfo_f4191.0 routing_f4191.0 emissions_f4191.0" vType="car" speedFactor="0.76" vaporized="">
        <emissions CO_abs="489.49" CO2_abs="141555.22" HC_abs="3.27" PMx_abs="14.42" NOx_abs="48.18" fuel_abs="45890.52" electricity_abs="0.00"/>
    </tripinfo>
    <tripinfo id="f4761.0" depart="197.00" departLane="D5D4_3" departPos="57.68" departSpeed="12.71" departDelay="0.00" arrival="284.00" arrivalLane="B4B3_2" arrivalPos="174.80" arrivalSpeed="6.24" duration="87.00" routeLength="709.27" waitingTime="9.00" waitingCount="3" stopTime="0.00" timeLoss="29.56" rerouteNo="1" devices="tripinfo_f4761.0 routing_f4761.0 emissions_f4761.0" vType="car" speedFactor="0.92" vaporized="">
        <emissions CO_abs="662.73" CO2_abs="179201.16" HC_abs="4.43" PMx_abs="15.38" NOx_abs="61.28" fuel_abs="58094.77" electricity_abs="0.00"/>
    </tripinfo>
    <tripinfo id="f_4.2" depart="120.00" departLane="C5C4_0" departPos="12.10" departSpeed="0.00" departDelay="0.00" arrival="291.00" arrivalLane="C1C0_0" arrivalPos="186.40" arrivalSpeed="13.59" duration="171.00" routeLength="987.90" waitingTime="71.00" waitingCount="2" stopTime="0.00" timeLoss="99.88" rerouteNo="0" devices="tripinfo_f_4.2 emissions_f_4.2" vType="t_0" speedFactor="1.00" vaporized="">
        <emissions CO_abs="424.90" CO2_abs="1633475.88" HC_abs="33.07" PMx_abs="261.24" NOx_abs="817.95" fuel_abs="524946.76" electricity_abs="0.00"/>
    </tripinfo>
    <tripinfo id="f4209.0" depart="262.00" departLane="E5E4_1" departPos="159.23" departSpeed="13.54" departDelay="0.00" arrival="291.00" arrivalLane="E4F4_2" arrivalPos="186.40" arrivalSpeed="13.52" duration="29.00" routeLength="238.08" waitingTime="3.00" waitingCount="2" stopTime="0.00" timeLoss="10.94" rerouteNo="0" devices="tripinfo_f4209.0 routing_f4209.0 emissions_f4209.0" vType="car" speedFactor="1.04" vaporized="">
        <emissions CO_abs="328.88" CO2_abs="72117.18" HC_abs="2.19" PMx_abs="5.48" NOx_abs="24.39" fuel_abs="23379.31" electricity_abs="0.00"/>
    </tripinfo>
    <tripinfo id="f_5.2" depart="120.00" departLane="C0C1_0" departPos="12.10" departSpeed="0.00" departDelay="0.00" arrival="292.00" arrivalLane="C4C5_0" arrivalPos="186.40" arrivalSpeed="13.44" duration="172.00" routeLength="987.90" waitingTime="72.00" waitingCount="2" stopTime="0.00" timeLoss="100.39" rerouteNo="0" devices="tripinfo_f_5.2 emissions_f_5.2" vType="t_0" speedFactor="1.00" vaporized="">
        <emissions CO_abs="429.01" CO2_abs="1647308.10" HC_abs="33.40" PMx_abs="264.58" NOx_abs="828.25" fuel_abs="529391.97" electricity_abs="0.00"/>
    </tripinfo>
    <tripinfo id="f7932.0" depart="186.00" departLane="E3E4_1" departPos="68.53" departSpeed="13.75" departDelay="0.00" arrival="292.00" arrivalLane="B4B3_2" arrivalPos="174.80" arrivalSpeed="6.59" duration="106.00" routeLength="900.09" waitingTime="12.00" waitingCount="2" stopTime="0.00" timeLoss="39.08" rerouteNo="1" devices="tripinfo_f7932.0 routing_f7932.0 emissions_f7932.0" vType="car" speedFactor="0.99" vaporized="">
        <emissions CO_abs="1025.83" CO2_abs="235372.49" HC_abs="6.84" PMx_abs="19.58" NOx_abs="80.12" fuel_abs="76304.63" electricity_abs="0.00"/>
    </tripinfo>
    <tripinfo id="f4988.0" depart="232.00" departLane="F2E2_1" departPos="158.58" departSpeed="13.70" departDelay="0.00" arrival="295.00" arrivalLane="E3D3_2" arrivalPos="172.80" arrivalSpeed="13.48" duration="63.00" routeLength="406.96" waitingTime="20.00" waitingCount="2" stopTime="0.00" timeLoss="32.51" rerouteNo="1" devices="tripinfo_f4988.0 routing_f4988.0 emissions_f4988.0" vType="car" speedFactor="1.02" vaporized="">
        <emissions CO_abs="585.92" CO2_abs="144586.72" HC_abs="3.90" PMx_abs="9.45" NOx_abs="51.02" fuel_abs="46873.12" electricity_abs="0.00"/>
    </tripinfo>
    <tripinfo id="f5253.0" depart="194.00" departLane="C2B2_2" departPos="38.56" departSpeed="10.45" departDelay="0.00" arrival="298.00" arrivalLane="B1A1_0" arrivalPos="186.40" arrivalSpeed="10.27" duration="104.00" routeLength="527.39" waitingTime="38.00" waitingCount="3" stopTime="0.00" timeLoss="51.04" rerouteNo="1" devices="tripinfo_f5253.0 routing_f5253.0 emissions_f5253.0" vType="car" speedFactor="0.75" vaporized="">
        <emissions CO_abs="368.32" CO2_abs="183926.00" HC_abs="2.46" PMx_abs="11.16" NOx_abs="65.36" fuel_abs="59626.83" electricity_abs="0.00"/>
    </tripinfo>
    <tripinfo id="f5290.0" depart="266.00" departLane="C2C3_0" departPos="140.31" departSpeed="10.16" departDelay="0.00" arrival="302.00" arrivalLane="C4C5_1" arrivalPos="186.40" arrivalSpeed="13.40" duration="36.00" routeLength="446.09" waitingTime="0.00" waitingCount="0" stopTime="0.00" timeLoss="2.96" rerouteNo="1" devices="tripinfo_f5290.0 routing_f5290.0 emissions_f5290.0" vType="car" speedFactor="1.08" vaporized="">
        <emissions CO_abs="434.32" CO2_abs="78704.30" HC_abs="2.92" PMx_abs="10.59" NOx_abs="28.15" fuel_abs="25515.04" electricity_abs="0.00"/>
    </tripinfo>
    <tripinfo id="f_1.11" depart="37.00" departLane="D0D1_0" departPos="1.70" departSpeed="0.00" departDelay="0.18" arrival="306.00" arrivalLane="D4D5_0" arrivalPos="187.40" arrivalSpeed="6.35" duration="269.00" routeLength="998.30" waitingTime="76.00" waitingCount="3" stopTime="0.00" timeLoss="116.33" rerouteNo="0" devices="tripinfo_f_1.11 emissions_f_1.11" vType="DEFAULT_BIKETYPE" speedFactor="1.18" vaporized="">
        <emissions CO_abs="0.00" CO2_abs="0.00" HC_abs="0.00" PMx_abs="0.00" NOx_abs="0.00" fuel_abs="0.00" electricity_abs="0.00"/>
    </tripinfo>
    <tripinfo id="f4242.1" depart="200.00" departLane="F3E3_2" departPos="8.73" departSpeed="13.90" departDelay="0.00" arrival="306.00" arrivalLane="E1F1_2" arrivalPos="186.40" arrivalSpeed="13.60" duration="106.00" routeLength="785.89" waitingTime="24.00" waitingCount="3" stopTime="0.00" timeLoss="48.30" rerouteNo="1" devices="tripinfo_f4242.1 routing_f4242.1 emissions_f4242.1" vType="car" speedFactor="1.04" vaporized="">
        <emissions CO_abs="934.92" CO2_abs="237647.63" HC_abs="6.25" PMx_abs="19.40" NOx_abs="82.96" fuel_abs="77042.49" electricity_abs="0.00"/>
    </tripinfo>
    <tripinfo id="f_5.3" depart="180.00" departLane="C0C1_0" departPos="12.10" departSpeed="0.00" departDelay="0.00" arrival="307.00" arrivalLane="C4C5_0" arrivalPos="186.40" arrivalSpeed="13.38" duration="127.00" routeLength="987.90" waitingTime="37.00" waitingCount="1" stopTime="0.00" timeLoss="55.51" rerouteNo="0" devices="tripinfo_f_5.3 emissions_f_5.3" vType="t_0" speedFactor="1.00" vaporized="">
        <emissions CO_abs="308.12" CO2_abs="1310420.82" HC_abs="25.69" PMx_abs="193.82" NOx_abs="612.67" fuel_abs="421125.13" electricity_abs="0.00"/>
    </tripinfo>
    <tripinfo id="f_1.10" depart="31.00" departLane="D0D1_0" departPos="1.70" departSpeed="0.00" departDelay="4.82" arrival="308.00" arrivalLane="D4D5_0" arrivalPos="187.40" arrivalSpeed="6.21" duration="277.00" routeLength="998.30" waitingTime="81.00" waitingCount="3" stopTime="0.00" timeLoss="120.65" rerouteNo="0" devices="tripinfo_f_1.10 emissions_f_1.10" vType="DEFAULT_BIKETYPE" speedFactor="1.15" vaporized="">
        <emissions CO_abs="0.00" CO2_abs="0.00" HC_abs="0.00" PMx_abs="0.00" NOx_abs="0.00" fuel_abs="0.00" electricity_abs="0.00"/>
    </tripinfo>