<?xml version="1.0" encoding="UTF-8"?>

<!-- generated on 2026-01-30T10:58:00.813084+01:00 by Eclipse SUMO GUI 1.25.0
<sumoConfiguration xmlns:xsi="http://www.w3.org/2001/XMLSchema-instance" xsi:noNamespaceSchemaLocation="http://sumo.dlr.de/xsd/sumoConfiguration.xsd">

    <input>
        <net-file value="ff.net.xml"/>
        <route-files value="ff_heterogeneous.rou.xml"/>
    </input>

    <output>
        <emission-output value="emissions.xml"/>
        <queue-output value="queue_ai.xml"/>
        <summary-output value="summary.xml"/>
        <tripinfo-output value="tripinfo_ai.xml"/>
    </output>

    <time>
        <begin value="0"/>
        <end value="3600"/>
    </time>

    <traci_server>
        <remote-port value="49441"/>
    </traci_server>

</sumoConfiguration>
-->

<tripinfos xmlns:xsi="http://www.w3.org/2001/XMLSchema-instance" xsi:noNamespaceSchemaLocation="http://sumo.dlr.de/xsd/tripinfo_file.xsd">
    <tripinfo id="f_4.0" depart="0.00" departLane="C5C4_0" departPos="12.10" departSpeed="0.00" departDelay="0.00" arrival="127.00" arrivalLane="C1C0_0" arrivalPos="186.40" arrivalSpeed="13.83" duration="127.00" routeLength="987.90" waitingTime="37.00" waitingCount="1" stopTime="0.00" timeLoss="55.75" rerouteNo="0" devices="tripinfo_f_4.0 emissions_f_4.0" vType="bus" speedFactor="1.00" vaporized="">
        <emissions CO_abs="313.60" CO2_abs="1342535.56" HC_abs="26.22" PMx_abs="197.44" NOx_abs="624.77" fuel_abs="431445.74" electricity_abs="0.00"/>
    </tripinfo>
    <tripinfo id="f_5.0" depart="0.00" departLane="C0C1_0" departPos="12.10" departSpeed="0.00" departDelay="0.00" arrival="127.00" arrivalLane="C4C5_0" arrivalPos="186.40" arrivalSpeed="13.77" duration="127.00" routeLength="987.90" waitingTime="38.00" waitingCount="1" stopTime="0.00" timeLoss="55.11" rerouteNo="0" devices="tripinfo_f_5.0 emissions_f_5.0" vType="bus" speedFactor="1.00" vaporized="">
        <emissions CO_abs="310.18" CO2_abs="1327225.41" HC_abs="25.88" PMx_abs="194.36" NOx_abs="615.54" fuel_abs="426525.67" electricity_abs="0.00"/>
    </tripinfo>
    <tripinfo id="f_4.1" depart="60.00" departLane="C5C4_0" departPos="12.10" departSpeed="0.00" departDelay="0.00" arrival="140.00" arrivalLane="C1C0_0" arrivalPos="186.40" arrivalSpeed="13.56" duration="80.00" routeLength="987.90" waitingTime="0.00" waitingCount="0" stopTime="0.00" timeLoss="8.44" rerouteNo="0" devices="tripinfo_f_4.1 emissions_f_4.1" vType="bus" speedFactor="1.00" vaporized="">
        <emissions CO_abs="191.76" CO2_abs="1021263.07" HC_abs="18.45" PMx_abs="125.60" NOx_abs="407.79" fuel_abs="328197.21" electricity_abs="0.00"/>
    </tripinfo>
    <tripinfo id="f_5.1" depart="60.00" departLane="C0C1_0" departPos="12.10" departSpeed="0.00" departDelay="0.00" arrival="159.00" arrivalLane="C4C5_0" arrivalPos="186.40" arrivalSpeed="13.66" duration="99.00" routeLength="987.90" waitingTime="8.00" waitingCount="1" stopTime="0.00" timeLoss="27.07" rerouteNo="0" devices="tripinfo_f_5.1 emissions_f_5.1" vType="bus" speedFactor="1.00" vaporized="">
        <emissions CO_abs="267.77" CO2_abs="1396795.84" HC_abs="23.76" PMx_abs="155.07" NOx_abs="508.98" fuel_abs="448884.89" electricity_abs="0.00"/>
    </tripinfo>
    <tripinfo id="f_1.1" depart="4.00" departLane="D0D1_0" departPos="1.70" departSpeed="0.00" departDelay="2.07" arrival="199.00" arrivalLane="D4D5_0" arrivalPos="187.40" arrivalSpeed="5.78" duration="195.00" routeLength="998.30" waitingTime="13.00" waitingCount="1" stopTime="0.00" timeLoss="28.92" rerouteNo="0" devices="tripinfo_f_1.1 emissions_f_1.1" vType="bike" speedFactor="1.08" vaporized="">
        <emissions CO_abs="0.00" CO2_abs="0.00" HC_abs="0.00" PMx_abs="0.00" NOx_abs="0.00" fuel_abs="0.00" electricity_abs="0.00"/>
    </tripinfo>
    <tripinfo id="f_1.0" depart="2.00" departLane="D0D1_0" departPos="1.70" departSpeed="0.00" departDelay="0.97" arrival="208.00" arrivalLane="D4D5_0" arrivalPos="187.40" arrivalSpeed="5.05" duration="206.00" routeLength="998.30" waitingTime="11.00" waitingCount="1" stopTime="0.00" timeLoss="27.34" rerouteNo="0" devices="tripinfo_f_1.0 emissions_f_1.0" vType="bike" speedFactor="1.01" vaporized="">
        <emissions CO_abs="0.00" CO2_abs="0.00" HC_abs="0.00" PMx_abs="0.00" NOx_abs="0.00" fuel_abs="0.00" electricity_abs="0.00"/>
    </tripinfo>
    <tripinfo id="f_3.8" depart="33.00" departLane="B5B4_0" departPos="1.70" departSpeed="0.00" departDelay="5.07" arrival="217.00" arrivalLane="B1B0_0" arrivalPos="187.40" arrivalSpeed="5.97" duration="184.00" routeLength="998.30" waitingTime="14.00" waitingCount="1" stopTime="0.00" timeLoss="30.06" rerouteNo="0" devices="tripinfo_f_3.8 emissions_f_3.8" vType="bike" speedFactor="1.17" vaporized="">
        <emissions CO_abs="0.00" CO2_abs="0.00" HC_abs="0.00" PMx_abs="0.00" NOx_abs="0.00" fuel_abs="0.00" electricity_abs="0.00"/>
    </tripinfo>
    <tripinfo id="f_0.0" depart="1.00" departLane="D5D4_0" departPos="1.70" departSpeed="0.00" departDelay="0.65" arrival="220.00" arrivalLane="D1D0_0" arrivalPos="187.40" arrivalSpeed="5.38" duration="219.00" routeLength="998.30" waitingTime="28.00" waitingCount="2" stopTime="0.00" timeLoss="49.24" rerouteNo="0" devices="tripinfo_f_0.0 emissions_f_0.0" vType="bike" speedFactor="1.06" vaporized="">
        <emissions CO_abs="0.00" CO2_abs="0.00" HC_abs="0.00" PMx_abs="0.00" NOx_abs="0.00" fuel_abs="0.00" electricity_abs="0.00"/>
    </tripinfo>
    <tripinfo id="f_3.2" depart="7.00" departLane="B5B4_0" departPos="1.70" departSpeed="0.00" departDelay="2.12" arrival="220.00" arrivalLane="B1B0_0" arrivalPos="187.40" arrivalSpeed="5.53" duration="213.00" routeLength="998.30" waitingTime="18.00" waitingCount="2" stopTime="0.00" timeLoss="41.02" rerouteNo="0" devices="tripinfo_f_3.2 emissions_f_3.2" vType="bike" speedFactor="1.05" vaporized="">
        <emissions CO_abs="0.00" CO2_abs="0.00" HC_abs="0.00" PMx_abs="0.00" NOx_abs="0.00" fuel_abs="0.00" electricity_abs="0.00"/>
    </tripinfo>
    <tripinfo id="f_0.2" depart="12.00" departLane="D5D4_0" departPos="1.70" departSpeed="0.00" departDelay="0.56" arrival="222.00" arrivalLane="D1D0_0" arrivalPos="187.40" arrivalSpeed="5.46" duration="210.00" routeLength="998.30" waitingTime="10.00" waitingCount="1" stopTime="0.00" timeLoss="34.24" rerouteNo="0" devices="tripinfo_f_0.2 emissions_f_0.2" vType="bike" speedFactor="1.03" vaporized="">
        <emissions CO_abs="0.00" CO2_abs="0.00" HC_abs="0.00" PMx_abs="0.00" NOx_abs="0.00" fuel_abs="0.00" electricity_abs="0.00"/>
    </tripinfo>
    <tripinfo id="f_3.0" depart="3.00" departLane="B5B4_0" departPos="1.70" departSpeed="0.00" departDelay="0.85" arrival="223.00" arrivalLane="B1B0_0" arrivalPos="187.40" arrivalSpeed="5.65" duration="220.00" routeLength="998.30" waitingTime="23.00" waitingCount="2" stopTime="0.00" timeLoss="44.96" rerouteNo="0" devices="tripinfo_f_3.0 emissions_f_3.0" vType="bike" speedFactor="1.03" vaporized="">
        <emissions CO_abs="0.00" CO2_abs="0.00" HC_abs="0.00" PMx_abs="0.00" NOx_abs="0.00" fuel_abs="0.00" electricity_abs="0.00"/>
    </tripinfo>
    <tripinfo id="f_4.2" depart="120.00" departLane="C5C4_0" departPos="12.10" departSpeed="0.00" departDelay="0.00" arrival="232.00" arrivalLane="C1C0_0" arrivalPos="186.40" arrivalSpeed="13.87" duration="112.00" routeLength="987.90" waitingTime="20.00" waitingCount="1" stopTime="0.00" timeLoss="39.89" rerouteNo="0" devices="tripinfo_f_4.2 emissions_f_4.2" vType="bus" speedFactor="1.00" vaporized="">
        <emissions CO_abs="296.53" CO2_abs="1431467.88" HC_abs="25.63" PMx_abs="178.08" NOx_abs="575.48" fuel_abs="460026.87" electricity_abs="0.00"/>
    </tripinfo>
    <tripinfo id="f7091.0" depart="191.00" departLane="D2C2_0" departPos="40.90" departSpeed="13.72" departDelay="0.00" arrival="243.00" arrivalLane="C2B2_0" arrivalPos="172.80" arrivalSpeed="13.55" duration="52.00" routeLength="331.90" waitingTime="21.00" waitingCount="1" stopTime="0.00" timeLoss="27.81" rerouteNo="0" devices="tripinfo_f7091.0 routing_f7091.0 emissions_f7091.0" vType="car" speedFactor="0.99" vaporized="">
        <emissions CO_abs="394.81" CO2_abs="108927.03" HC_abs="2.64" PMx_abs="7.39" NOx_abs="39.23" fuel_abs="35312.87" electricity_abs="0.00"/>
    </tripinfo>
    <tripinfo id="f5254.0" depart="214.00" departLane="C2B2_2" departPos="101.80" departSpeed="12.04" departDelay="0.00" arrival="245.00" arrivalLane="B2A2_0" arrivalPos="186.40" arrivalSpeed="11.85" duration="31.00" routeLength="284.60" waitingTime="0.00" waitingCount="0" stopTime="0.00" timeLoss="7.32" rerouteNo="0" devices="tripinfo_f5254.0 routing_f5254.0 emissions_f5254.0" vType="car" speedFactor="0.87" vaporized="">
        <emissions CO_abs="239.30" CO2_abs="67834.76" HC_abs="1.60" PMx_abs="6.53" NOx_abs="22.18" fuel_abs="21991.09" electricity_abs="0.00"/>
    </tripinfo>
    <tripinfo id="f_1.9" depart="28.00" departLane="D0D1_0" departPos="1.70" departSpeed="0.00" departDelay="1.96" arrival="249.00" arrivalLane="D4D5_0" arrivalPos="187.40" arrivalSpeed="6.31" duration="221.00" routeLength="998.30" waitingTime="44.00" waitingCount="3" stopTime="0.00" timeLoss="67.73" rerouteNo="0" devices="tripinfo_f_1.9 emissions_f_1.9" vType="bike" speedFactor="1.18" vaporized="">
        <emissions CO_abs="0.00" CO2_abs="0.00" HC_abs="0.00" PMx_abs="0.00" NOx_abs="0.00" fuel_abs="0.00" electricity_abs="0.00"/>
    </tripinfo>
    <tripinfo id="f_0.13" depart="50.00" departLane="D5D4_0" departPos="1.70" departSpeed="0.00" departDelay="5.22" arrival="249.00" arrivalLane="D1D0_0" arrivalPos="187.40" arrivalSpeed="6.49" duration="199.00" routeLength="998.30" waitingTime="28.00" waitingCount="1" stopTime="0.00" timeLoss="45.08" rerouteNo="0" devices="tripinfo_f_0.13 emissions_f_0.13" vType="bike" speedFactor="1.17" vaporized="">
        <emissions CO_abs="0.00" CO2_abs="0.00" HC_abs="0.00" PMx_abs="0.00" NOx_abs="0.00" fuel_abs="0.00" electricity_abs="0.00"/>
    </tripinfo>
    <tripinfo id="f_1.8" depart="26.00" departLane="D0D1_0" departPos="1.70" departSpeed="0.00" departDelay="0.77" arrival="251.00" arrivalLane="D4D5_1" arrivalPos="187.40" arrivalSpeed="6.17" duration="225.00" routeLength="998.30" waitingTime="44.00" waitingCount="2" stopTime="0.00" timeLoss="65.91" rerouteNo="0" devices="tripinfo_f_1.8 emissions_f_1.8" vType="bike" speedFactor="1.13" vaporized="">
        <emissions CO_abs="0.00" CO2_abs="0.00" HC_abs="0.00" PMx_abs="0.00" NOx_abs="0.00" fuel_abs="0.00" electricity_abs="0.00"/>
    </tripinfo>
    <tripinfo id="f_5.2" depart="120.00" departLane="C0C1_0" departPos="12.10" departSpeed="0.00" departDelay="0.00" arrival="251.00" arrivalLane="C4C5_0" arrivalPos="186.40" arrivalSpeed="13.77" duration="131.00" routeLength="987.90" waitingTime="37.00" waitingCount="1" stopTime="0.00" timeLoss="59.58" rerouteNo="0" devices="tripinfo_f_5.2 emissions_f_5.2" vType="bus" speedFactor="1.00" vaporized="">
        <emissions CO_abs="335.22" CO2_abs="1495651.99" HC_abs="27.76" PMx_abs="200.34" NOx_abs="641.13" fuel_abs="480654.64" electricity_abs="0.00"/>
    </tripinfo>
    <tripinfo id="f_1.5" depart="14.00" departLane="D0D1_0" departPos="1.70" departSpeed="0.00" departDelay="1.92" arrival="252.00" arrivalLane="D4D5_0" arrivalPos="187.40" arrivalSpeed="6.09" duration="238.00" routeLength="998.30" waitingTime="58.00" waitingCount="2" stopTime="0.00" timeLoss="77.07" rerouteNo="0" devices="tripinfo_f_1.5 emissions_f_1.5" vType="bike" speedFactor="1.12" vaporized="">
        <emissions CO_abs="0.00" CO2_abs="0.00" HC_abs="0.00" PMx_abs="0.00" NOx_abs="0.00" fuel_abs="0.00" electricity_abs="0.00"/>
    </tripinfo>
    <tripinfo id="f_3.12" depart="45.00" departLane="B5B4_0" departPos="1.70" departSpeed="0.00" departDelay="0.55" arrival="253.00" arrivalLane="B1B0_0" arrivalPos="187.40" arrivalSpeed="5.49" duration="208.00" routeLength="998.30" waitingTime="26.00" waitingCount="1" stopTime="0.00" timeLoss="43.61" rerouteNo="0" devices="tripinfo_f_3.12 emissions_f_3.12" vType="bike" speedFactor="1.10" vaporized="">
        <emissions CO_abs="0.00" CO2_abs="0.00" HC_abs="0.00" PMx_abs="0.00" NOx_abs="0.00" fuel_abs="0.00" electricity_abs="0.00"/>
    </tripinfo>
    <tripinfo id="f_2.0" depart="10.00" departLane="B0B1_0" departPos="1.70" departSpeed="0.00" departDelay="0.64" arrival="254.00" arrivalLane="B4B5_0" arrivalPos="187.40" arrivalSpeed="5.78" duration="244.00" routeLength="998.30" waitingTime="59.00" waitingCount="2" stopTime="0.00" timeLoss="78.80" rerouteNo="0" devices="tripinfo_f_2.0 emissions_f_2.0" vType="bike" speedFactor="1.09" vaporized="">
        <emissions CO_abs="0.00" CO2_abs="0.00" HC_abs="0.00" PMx_abs="0.00" NOx_abs="0.00" fuel_abs="0.00" electricity_abs="0.00"/>
    </tripinfo>
    <tripinfo id="f_2.8" depart="42.00" departLane="B0B1_0" departPos="1.70" departSpeed="0.00" departDelay="0.39" arrival="254.00" arrivalLane="B4B5_1" arrivalPos="187.40" arrivalSpeed="5.49" duration="212.00" routeLength="998.30" waitingTime="21.00" waitingCount="2" stopTime="0.00" timeLoss="46.37" rerouteNo="0" devices="tripinfo_f_2.8 emissions_f_2.8" vType="bike" speedFactor="1.09" vaporized="">
        <emissions CO_abs="0.00" CO2_abs="0.00" HC_abs="0.00" PMx_abs="0.00" NOx_abs="0.00" fuel_abs="0.00" electricity_abs="0.00"/>
    </tripinfo>
    <tripinfo id="f_2.2" depart="20.00" departLane="B0B1_0" departPos="1.70" departSpeed="0.00" departDelay="0.40" arrival="255.00" arrivalLane="B4B5_0" arrivalPos="187.40" arrivalSpeed="5.95" duration="235.00" routeLength="998.30" waitingTime="52.00" waitingCount="2" stopTime="0.00" timeLoss="79.80" rerouteNo="0" devices="tripinfo_f_2.2 emissions_f_2.2" vType="bike" speedFactor="1.16" vaporized="">
        <emissions CO_abs="0.00" CO2_abs="0.00" HC_abs="0.00" PMx_abs="0.00" NOx_abs="0.00" fuel_abs="0.00" electricity_abs="0.00"/>
    </tripinfo>
    <tripinfo id="f_1.12" depart="39.00" departLane="D0D1_0" departPos="1.70" departSpeed="0.00" departDelay="2.07" arrival="255.00" arrivalLane="D4D5_0" arrivalPos="187.40" arrivalSpeed="6.07" duration="216.00" routeLength="998.30" waitingTime="31.00" waitingCount="2" stopTime="0.00" timeLoss="52.81" rerouteNo="0" devices="tripinfo_f_1.12 emissions_f_1.12" vType="bike" speedFactor="1.10" vaporized="">
        <emissions CO_abs="0.00" CO2_abs="0.00" HC_abs="0.00" PMx_abs="0.00" NOx_abs="0.00" fuel_abs="0.00" electricity_abs="0.00"/>
    </tripinfo>
    <tripinfo id="f_2.1" depart="12.00" departLane="B0B1_0" departPos="1.70" departSpeed="0.00" departDelay="0.91" arrival="256.00" arrivalLane="B4B5_0" arrivalPos="187.40" arrivalSpeed="5.51" duration="244.00" routeLength="998.30" waitingTime="49.00" waitingCount="2" stopTime="0.00" timeLoss="72.23" rerouteNo="0" devices="tripinfo_f_2.1 emissions_f_2.1" vType="bike" speedFactor="1.05" vaporized="">
        <emissions CO_abs="0.00" CO2_abs="0.00" HC_abs="0.00" PMx_abs="0.00" NOx_abs="0.00" fuel_abs="0.00" electricity_abs="0.00"/>
    </tripinfo>
    <tripinfo id="f_3.3" depart="21.00" departLane="B5B4_0" departPos="1.70" departSpeed="0.00" departDelay="0.63" arrival="260.00" arrivalLane="B1B0_0" arrivalPos="187.40" arrivalSpeed="5.05" duration="239.00" routeLength="998.30" waitingTime="44.00" waitingCount="1" stopTime="0.00" timeLoss="60.60" rerouteNo="0" devices="tripinfo_f_3.3 emissions_f_3.3" vType="bike" speedFactor="1.01" vaporized="">
        <emissions CO_abs="0.00" CO2_abs="0.00" HC_abs="0.00" PMx_abs="0.00" NOx_abs="0.00" fuel_abs="0.00" electricity_abs="0.00"/>
    </tripinfo>
    <tripinfo id="f_3.7" depart="30.00" departLane="B5B4_0" departPos="1.70" departSpeed="0.00" departDelay="3.21" arrival="260.00" arrivalLane="B1B0_1" arrivalPos="187.40" arrivalSpeed="5.58" duration="230.00" routeLength="998.30" waitingTime="32.00" waitingCount="1" stopTime="0.00" timeLoss="50.72" rerouteNo="0" devices="tripinfo_f_3.7 emissions_f_3.7" vType="bike" speedFactor="1.01" vaporized="">
        <emissions CO_abs="0.00" CO2_abs="0.00" HC_abs="0.00" PMx_abs="0.00" NOx_abs="0.00" fuel_abs="0.00" electricity_abs="0.00"/>
    </tripinfo>
    <tripinfo id="f4063.0" depart="195.00" departLane="C0C1_1" departPos="44.99" departSpeed="13.90" departDelay="0.00" arrival="260.00" arrivalLane="E1E0_0" arrivalPos="186.40" arrivalSpeed="13.70" duration="65.00" routeLength="718.67" waitingTime="0.00" waitingCount="0" stopTime="0.00" timeLoss="12.13" rerouteNo="1" devices="tripinfo_f4063.0 routing_f4063.0 emissions_f4063.0" vType="car" speedFactor="1.04" vaporized="">
        <emissions CO_abs="871.26" CO2_abs="162139.46" HC_abs="5.82" PMx_abs="16.34" NOx_abs="55.63" fuel_abs="52563.47" electricity_abs="0.00"/>
    </tripinfo>
    <tripinfo id="f_2.3" depart="22.00" departLane="B0B1_0" departPos="1.70" departSpeed="0.00" departDelay="1.02" arrival="261.00" arrivalLane="B4B5_0" arrivalPos="187.40" arrivalSpeed="5.55" duration="239.00" routeLength="998.30" waitingTime="37.00" waitingCount="2" stopTime="0.00" timeLoss="61.88" rerouteNo="0" devices="tripinfo_f_2.3 emissions_f_2.3" vType="bike" speedFactor="1.02" vaporized="">
        <emissions CO_abs="0.00" CO2_abs="0.00" HC_abs="0.00" PMx_abs="0.00" NOx_abs="0.00" fuel_abs="0.00" electricity_abs="0.00"/>
    </tripinfo>
    <tripinfo id="f_3.4" depart="23.00" departLane="B5B4_0" departPos="1.70" departSpeed="0.00" departDelay="2.05" arrival="262.00" arrivalLane="B1B0_0" arrivalPos="187.40" arrivalSpeed="5.15" duration="239.00" routeLength="998.30" waitingTime="37.00" waitingCount="1" stopTime="0.00" timeLoss="54.63" rerouteNo="0" devices="tripinfo_f_3.4 emissions_f_3.4" vType="bike" speedFactor="0.97" vaporized="">
        <emissions CO_abs="0.00" CO2_abs="0.00" HC_abs="0.00" PMx_abs="0.00" NOx_abs="0.00" fuel_abs="0.00" electricity_abs="0.00"/>
    </tripinfo>
    <tripinfo id="f_3.13" depart="47.00" departLane="B5B4_0" departPos="1.70" departSpeed="0.00" departDelay="0.90" arrival="262.00" arrivalLane="B1B0_1" arrivalPos="187.40" arrivalSpeed="5.42" duration="215.00" routeLength="998.30" waitingTime="15.00" waitingCount="1" stopTime="0.00" timeLoss="35.74" rerouteNo="0" devices="tripinfo_f_3.13 emissions_f_3.13" vType="bike" speedFactor="1.00" vaporized="">
        <emissions CO_abs="0.00" CO2_abs="0.00" HC_abs="0.00" PMx_abs="0.00" NOx_abs="0.00" fuel_abs="0.00" electricity_abs="0.00"/>
    </tripinfo>
    <tripinfo id="f4034.0" depart="202.00" departLane="E0E1_2" departPos="77.76" departSpeed="13.45" departDelay="0.00" arrival="262.00" arrivalLane="C1C0_2" arrivalPos="186.40" arrivalSpeed="12.74" duration="60.00" routeLength="716.86" waitingTime="0.00" waitingCount="0" stopTime="0.00" timeLoss="5.09" rerouteNo="1" devices="tripinfo_f4034.0 routing_f4034.0 emissions_f4034.0" vType="car" speedFactor="0.97" vaporized="">
        <emissions CO_abs="700.61" CO2_abs="133300.35" HC_abs="4.69" PMx_abs="15.82" NOx_abs="46.57" fuel_abs="43214.35" electricity_abs="0.00"/>
    </tripinfo>
    <tripinfo id="f_1.6" depart="17.00" departLane="D0D1_0" departPos="1.70" departSpeed="0.00" departDelay="4.52" arrival="263.00" arrivalLane="D4D5_0" arrivalPos="187.40" arrivalSpeed="5.43" duration="246.00" routeLength="998.30" waitingTime="43.00" waitingCount="2" stopTime="0.00" timeLoss="64.26" rerouteNo="0" devices="tripinfo_f_1.6 emissions_f_1.6" vType="bike" speedFactor="0.99" vaporized="">
        <emissions CO_abs="0.00" CO2_abs="0.00" HC_abs="0.00" PMx_abs="0.00" NOx_abs="0.00" fuel_abs="0.00" electricity_abs="0.00"/>
    </tripinfo>
    <tripinfo id="f5650.0" depart="243.00" departLane="E1D1_2" departPos="121.68" departSpeed="13.00" departDelay="0.00" arrival="265.00" arrivalLane="D1D0_3" arrivalPos="187.40" arrivalSpeed="13.04" duration="22.00" routeLength="262.23" waitingTime="0.00" waitingCount="0" stopTime="0.00" timeLoss="2.04" rerouteNo="0" devices="tripinfo_f5650.0 routing_f5650.0 emissions_f5650.0" vType="car" speedFactor="1.01" vaporized="">
        <emissions CO_abs="282.16" CO2_abs="50141.27" HC_abs="1.89" PMx_abs="5.71" NOx_abs="17.50" fuel_abs="16255.17" electricity_abs="0.00"/>
    </tripinfo>
    <tripinfo id="f_2.6" depart="35.00" departLane="B0B1_0" departPos="1.70" departSpeed="0.00" departDelay="0.63" arrival="266.00" arrivalLane="B4B5_0" arrivalPos="187.40" arrivalSpeed="5.05" duration="231.00" routeLength="998.30" waitingTime="23.00" waitingCount="2" stopTime="0.00" timeLoss="46.28" rerouteNo="0" devices="tripinfo_f_2.6 emissions_f_2.6" vType="bike" speedFactor="0.97" vaporized="">
        <emissions CO_abs="0.00" CO2_abs="0.00" HC_abs="0.00" PMx_abs="0.00" NOx_abs="0.00" fuel_abs="0.00" electricity_abs="0.00"/>
    </tripinfo>
    <tripinfo id="f7847.0" depart="233.00" departLane="E3D3_1" departPos="162.55" departSpeed="12.58" departDelay="0.00" arrival="267.00" arrivalLane="C3B3_0" arrivalPos="172.80" arrivalSpeed="12.49" duration="34.00" routeLength="410.25" waitingTime="0.00" waitingCount="0" stopTime="0.00" timeLoss="1.38" rerouteNo="1" devices="tripinfo_f7847.0 routing_f7847.0 emissions_f7847.0" vType="car" speedFactor="0.91" vaporized="">
        <emissions CO_abs="262.68" CO2_abs="62996.26" HC_abs="1.77" PMx_abs="9.45" NOx_abs="22.87" fuel_abs="20422.79" electricity_abs="0.00"/>
    </tripinfo>
    <tripinfo id="f5653.0" depart="180.00" departLane="E1D1_2" departPos="128.43" departSpeed="13.90" departDelay="0.00" arrival="275.00" arrivalLane="B1A1_0" arrivalPos="186.40" arrivalSpeed="13.25" duration="95.00" routeLength="657.97" waitingTime="39.00" waitingCount="1" stopTime="0.00" timeLoss="46.81" rerouteNo="1" devices="tripinfo_f5653.0 routing_f5653.0 emissions_f5653.0" vType="car" speedFactor="1.02" vaporized="">
        <emissions CO_abs="609.31" CO2_abs="182057.76" HC_abs="4.11" PMx_abs="15.15" NOx_abs="66.69" fuel_abs="59021.32" electricity_abs="0.00"/>
    </tripinfo>
    <tripinfo id="f4129.0" depart="203.00" departLane="A3B3_0" departPos="182.08" departSpeed="4.32" departDelay="0.00" arrival="279.00" arrivalLane="B4A4_2" arrivalPos="186.40" arrivalSpeed="13.00" duration="76.00" routeLength="412.94" waitingTime="32.00" waitingCount="2" stopTime="0.00" timeLoss="45.27" rerouteNo="1" devices="tripinfo_f4129.0 routing_f4129.0 emissions_f4129.0" vType="car" speedFactor="1.09" vaporized="">
        <emissions CO_abs="592.54" CO2_abs="168667.60" HC_abs="3.94" PMx_abs="9.64" NOx_abs="60.03" fuel_abs="54679.95" electricity_abs="0.00"/>
    </tripinfo>
    <tripinfo id="f4260.1" depart="220.00" departLane="F1E1_2" departPos="176.11" departSpeed="7.40" departDelay="0.00" arrival="279.00" arrivalLane="C1C0_2" arrivalPos="186.40" arrivalSpeed="12.30" duration="59.00" routeLength="621.20" waitingTime="2.00" waitingCount="1" stopTime="0.00" timeLoss="10.58" rerouteNo="1" devices="tripinfo_f4260.1 routing_f4260.1 emissions_f4260.1" vType="car" speedFactor="0.93" vaporized="">
        <emissions CO_abs="618.71" CO2_abs="132625.04" HC_abs="4.14" PMx_abs="13.59" NOx_abs="45.56" fuel_abs="42995.28" electricity_abs="0.00"/>
    </tripinfo>
    <tripinfo id="f4209.0" depart="262.00" departLane="E5E4_2" departPos="181.66" departSpeed="4.62" departDelay="0.00" arrival="280.00" arrivalLane="E4F4_2" arrivalPos="186.40" arrivalSpeed="13.70" duration="18.00" routeLength="215.65" waitingTime="0.00" waitingCount="0" stopTime="0.00" timeLoss="1.78" rerouteNo="0" devices="tripinfo_f4209.0 routing_f4209.0 emissions_f4209.0" vType="car" speedFactor="1.04" vaporized="">
        <emissions CO_abs="292.60" CO2_abs="55916.21" HC_abs="1.95" PMx_abs="6.20" NOx_abs="19.17" fuel_abs="18127.32" electricity_abs="0.00"/>
    </tripinfo>
    <tripinfo id="f4176.0" depart="196.00" departLane="C5C4_1" departPos="16.59" departSpeed="13.29" departDelay="0.00" arrival="281.00" arrivalLane="B4B5_1" arrivalPos="187.40" arrivalSpeed="12.46" duration="85.00" routeLength="547.28" waitingTime="32.00" waitingCount="1" stopTime="0.00" timeLoss="41.19" rerouteNo="1" devices="tripinfo_f4176.0 routing_f4176.0 emissions_f4176.0" vType="car" speedFactor="0.96" vaporized="">
        <emissions CO_abs="623.49" CO2_abs="173258.90" HC_abs="4.16" PMx_abs="11.98" NOx_abs="61.91" fuel_abs="56168.60" electricity_abs="0.00"/>
    </tripinfo>
    <tripinfo id="f4260.0" depart="199.00" departLane="F1E1_1" departPos="173.00" departSpeed="8.95" departDelay="0.00" arrival="281.00" arrivalLane="C1C0_2" arrivalPos="186.40" arrivalSpeed="13.76" duration="82.00" routeLength="624.31" waitingTime="21.00" waitingCount="1" stopTime="0.00" timeLoss="36.41" rerouteNo="1" devices="tripinfo_f4260.0 routing_f4260.0 emissions_f4260.0" vType="car" speedFactor="1.21" vaporized="">
        <emissions CO_abs="851.81" CO2_abs="189488.05" HC_abs="5.66" PMx_abs="13.77" NOx_abs="66.08" fuel_abs="61429.63" electricity_abs="0.00"/>
    </tripinfo>
    <tripinfo id="f_1.10" depart="31.00" departLane="D0D1_0" departPos="1.70" departSpeed="0.00" departDelay="4.82" arrival="285.00" arrivalLane="D4D5_0" arrivalPos="187.40" arrivalSpeed="6.13" duration="254.00" routeLength="998.30" waitingTime="67.00" waitingCount="2" stopTime="0.00" timeLoss="98.12" rerouteNo="0" devices="tripinfo_f_1.10 emissions_f_1.10" vType="bike" speedFactor="1.15" vaporized="">
        <emissions CO_abs="0.00" CO2_abs="0.00" HC_abs="0.00" PMx_abs="0.00" NOx_abs="0.00" fuel_abs="0.00" electricity_abs="0.00"/>
    </tripinfo>
    <tripinfo id="f_2.14" depart="58.00" departLane="B0B1_0" departPos="1.70" departSpeed="0.00" departDelay="5.62" arrival="287.00" arrivalLane="B4B5_0" arrivalPos="187.40" arrivalSpeed="6.08" duration="229.00" routeLength="998.30" waitingTime="44.00" waitingCount="1" stopTime="0.00" timeLoss="67.66" rerouteNo="0" devices="tripinfo_f_2.14 emissions_f_2.14" vType="bike" speedFactor="1.12" vaporized="">
        <emissions CO_abs="0.00" CO2_abs="0.00" HC_abs="0.00" PMx_abs="0.00" NOx_abs="0.00" fuel_abs="0.00" electricity_abs="0.00"/>
    </tripinfo>
    <tripinfo id="f_1.14" depart="44.00" departLane="D0D1_0" departPos="1.70" departSpeed="0.00" departDelay="2.40" arrival="294.00" arrivalLane="D4D5_0" arrivalPos="187.40" arrivalSpeed="5.67" duration="250.00" routeLength="998.30" waitingTime="52.00" waitingCount="2" stopTime="0.00" timeLoss="76.89" rerouteNo="0" devices="tripinfo_f_1.14 emissions_f_1.14" vType="bike" speedFactor="1.04" vaporized="">
        <emissions CO_abs="0.00" CO2_abs="0.00" HC_abs="0.00" PMx_abs="0.00" NOx_abs="0.00" fuel_abs="0.00" electricity_abs="0.00"/>
    </tripinfo>
    <tripinfo id="f_2.16" depart="63.00" departLane="B0B1_0" departPos="1.70" departSpeed="0.00" departDelay="3.57" arrival="294.00" arrivalLane="B4B5_1" arrivalPos="187.40" arrivalSpeed="5.51" duration="231.00" routeLength="998.30" waitingTime="40.00" waitingCount="1" stopTime="0.00" timeLoss="57.67" rerouteNo="0" devices="tripinfo_f_2.16 emissions_f_2.16" vType="bike" speedFactor="1.04" vaporized="">
        <emissions CO_abs="0.00" CO2_abs="0.00" HC_abs="0.00" PMx_abs="0.00" NOx_abs="0.00" fuel_abs="0.00" electricity_abs="0.00"/>
    </tripinfo>
    <tripinfo id="f_2.17" depart="67.00" departLane="B0B1_0" departPos="1.70" departSpeed="0.00" departDelay="0.14" arrival="294.00" arrivalLane="B4B5_0" arrivalPos="187.40" arrivalSpeed="5.81" duration="227.00" routeLength="998.30" waitingTime="39.00" waitingCount="1" stopTime="0.00" timeLoss="56.06" rerouteNo="0" devices="tripinfo_f_2.17 emissions_f_2.17" vType="bike" speedFactor="1.06" vaporized="">
        <emissions CO_abs="0.00" CO2_abs="0.00" HC_abs="0.00" PMx_abs="0.00" NOx_abs="0.00" fuel_abs="0.00" electricity_abs="0.00"/>
    </tripinfo>
    <tripinfo id="f_1.13" depart="42.00" departLane="D0D1_0" departPos="1.70" departSpeed="0.00" departDelay="1.03" arrival="295.00" arrivalLane="D4D5_0" arrivalPos="187.40" arrivalSpeed="5.39" duration="253.00" routeLength="998.30" waitingTime="54.00" waitingCount="2" stopTime="0.00" timeLoss="79.47" rerouteNo="0" devices="tripinfo_f_1.13 emissions_f_1.13" vType="bike" speedFactor="1.04" vaporized="">
        <emissions CO_abs="0.00" CO2_abs="0.00" HC_abs="0.00" PMx_abs="0.00" NOx_abs="0.00" fuel_abs="0.00" electricity_abs="0.00"/>
    </tripinfo>
    <tripinfo id="f_2.11" depart="49.00" departLane="B0B1_0" departPos="1.70" departSpeed="0.00" departDelay="4.04" arrival="296.00" arrivalLane="B4B5_0" arrivalPos="187.40" arrivalSpeed="5.27" duration="247.00" routeLength="998.30" waitingTime="47.00" waitingCount="2" stopTime="0.00" timeLoss="69.96" rerouteNo="0" devices="tripinfo_f_2.11 emissions_f_2.11" vType="bike" speedFactor="1.02" vaporized="">
        <emissions CO_abs="0.00" CO2_abs="0.00" HC_abs="0.00" PMx_abs="0.00" NOx_abs="0.00" fuel_abs="0.00" electricity_abs="0.00"/>
    </tripinfo>
    <tripinfo id="f_1.16" depart="55.00" departLane="D0D1_0" departPos="1.70" departSpeed="0.00" departDelay="0.36" arrival="297.00" arrivalLane="D4D5_0" arrivalPos="187.40" arrivalSpeed="5.31" duration="242.00" routeLength="998.30" waitingTime="46.00" waitingCount="1" stopTime="0.00" timeLoss="64.83" rerouteNo="0" devices="tripinfo_f_1.16 emissions_f_1.16" vType="bike" speedFactor="1.02" vaporized="">
        <emissions CO_abs="0.00" CO2_abs="0.00" HC_abs="0.00" PMx_abs="0.00" NOx_abs="0.00" fuel_abs="0.00" electricity_abs="0.00"/>
    </tripinfo>
    <tripinfo id="f_1.15" depart="49.00" departLane="D0D1_0" departPos="1.70" departSpeed="0.00" departDelay="0.07" arrival="298.00" arrivalLane="D4D5_1" arrivalPos="187.40" arrivalSpeed="5.41" duration="249.00" routeLength="998.30" waitingTime="47.00" waitingCount="2" stopTime="0.00" timeLoss="72.75" rerouteNo="0" devices="tripinfo_f_1.15 emissions_f_1.15" vType="bike" speedFactor="1.02" vaporized="">
        <emissions CO_abs="0.00" CO2_abs="0.00" HC_abs="0.00" PMx_abs="0.00" NOx_abs="0.00" fuel_abs="0.00" electricity_abs="0.00"/>
    </tripinfo>